diamond Si                              
   4.60000000000000     
     0.000000    0.490819    0.490819
     0.490819    0.000000    0.490819
     0.490819    0.490819    0.000000
   Si
     2
Direct
  0.875000  0.875000  0.875000
  0.125000  0.125000  0.125000
 
   24   24   24
 0.20742271385E+02 0.20290481913E+02 0.18801497684E+02 0.16316558398E+02 0.13376597842E+02
 0.10953597243E+02 0.10010862749E+02 0.10953097947E+02 0.13376278571E+02 0.16316708800E+02
 0.18801507682E+02 0.20289706417E+02 0.20741029360E+02 0.20289706417E+02 0.18801507682E+02
 0.16316708800E+02 0.13376278571E+02 0.10953097947E+02 0.10010862749E+02 0.10953597243E+02
 0.13376597842E+02 0.16316558398E+02 0.18801497684E+02 0.20290481913E+02 0.20290481913E+02
 0.19286669838E+02 0.16890830129E+02 0.13448545520E+02 0.99691573528E+01 0.77641293281E+01
 0.77639350228E+01 0.99689396642E+01 0.13448743900E+02 0.16891129714E+02 0.19286424083E+02
 0.20289663912E+02 0.20122819736E+02 0.19148513272E+02 0.17440884359E+02 0.15222196396E+02
 0.13064267488E+02 0.11716641993E+02 0.11716798814E+02 0.13064656017E+02 0.15222624947E+02
 0.17441266584E+02 0.19149039757E+02 0.20123655261E+02 0.18801497684E+02 0.16890830129E+02
 0.13450158492E+02 0.92979886575E+01 0.58617791175E+01 0.45245603058E+01 0.58609877701E+01
 0.92973132259E+01 0.13450312708E+02 0.16891475193E+02 0.18801673804E+02 0.19148324907E+02
 0.18418945753E+02 0.17117346926E+02 0.15449577559E+02 0.13704542113E+02 0.12346194403E+02
 0.11829712181E+02 0.12346204613E+02 0.13704509652E+02 0.15449719274E+02 0.17118018280E+02
 0.18420012746E+02 0.19149039757E+02 0.16316558398E+02 0.13448545520E+02 0.92979886575E+01
 0.51186271135E+01 0.24817429080E+01 0.24810268585E+01 0.51172817278E+01 0.92974999131E+01
 0.13449340726E+02 0.16317498606E+02 0.17441093460E+02 0.17116940426E+02 0.16010057196E+02
 0.14600084114E+02 0.13143629002E+02 0.11906291935E+02 0.11184419064E+02 0.11184587318E+02
 0.11906404896E+02 0.13143326788E+02 0.14599950476E+02 0.16010789615E+02 0.17118018280E+02
 0.17441266584E+02 0.13376597842E+02 0.99691573528E+01 0.58617791175E+01 0.24817429080E+01
 0.11717724290E+01 0.24816738641E+01 0.58617943440E+01 0.99693983152E+01 0.13377014336E+02
 0.15222961978E+02 0.15449715489E+02 0.14599581001E+02 0.13340288947E+02 0.12011130824E+02
 0.10839872248E+02 0.10031634557E+02 0.97422227108E+01 0.10031513209E+02 0.10839855511E+02
 0.12011405910E+02 0.13340767861E+02 0.14599950476E+02 0.15449719274E+02 0.15222624947E+02
 0.10953597243E+02 0.77641293281E+01 0.45245603058E+01 0.24810268585E+01 0.24816738641E+01
 0.45258212675E+01 0.77648449179E+01 0.10953568358E+02 0.13064679392E+02 0.13705022699E+02
 0.13143676643E+02 0.12010864266E+02 0.10767229764E+02 0.96309600376E+01 0.87688806147E+01
 0.83037378926E+01 0.83033325920E+01 0.87683415979E+01 0.96312861069E+01 0.10768221897E+02
 0.12011405910E+02 0.13143326788E+02 0.13704509652E+02 0.13064656017E+02 0.10010862749E+02
 0.77639350228E+01 0.58609877701E+01 0.51172817278E+01 0.58617943440E+01 0.77648449179E+01
 0.10011300087E+02 0.11716836256E+02 0.12346204928E+02 0.11906477795E+02 0.10839864485E+02
 0.96311789362E+01 0.85009744814E+01 0.75944424333E+01 0.70118948153E+01 0.68113957979E+01
 0.70118657197E+01 0.75944632821E+01 0.85010840154E+01 0.96312861069E+01 0.10839855511E+02
 0.11906404896E+02 0.12346204613E+02 0.11716798814E+02 0.10953097947E+02 0.99689396642E+01
 0.92973132259E+01 0.92974999131E+01 0.99693983152E+01 0.10953568358E+02 0.11716836256E+02
 0.11829526004E+02 0.11184272725E+02 0.10031530104E+02 0.87688456516E+01 0.75950032197E+01
 0.66262630485E+01 0.59434728477E+01 0.55926745253E+01 0.55929841588E+01 0.59439795705E+01
 0.66262747577E+01 0.75944632821E+01 0.87683415979E+01 0.10031513209E+02 0.11184587318E+02
 0.11829712181E+02 0.11716641993E+02 0.13376278571E+02 0.13448743900E+02 0.13450312708E+02
 0.13449340726E+02 0.13377014336E+02 0.13064679392E+02 0.12346204928E+02 0.11184272725E+02
 0.97421411403E+01 0.83033282873E+01 0.70118552550E+01 0.59439461309E+01 0.51548112426E+01
 0.46742697599E+01 0.45133572996E+01 0.46742603112E+01 0.51548258169E+01 0.59439795705E+01
 0.70118657197E+01 0.83033325920E+01 0.97422227108E+01 0.11184419064E+02 0.12346194403E+02
 0.13064267488E+02 0.16316708800E+02 0.16891129714E+02 0.16891475193E+02 0.16317498606E+02
 0.15222961978E+02 0.13705022699E+02 0.11906477795E+02 0.10031530104E+02 0.83033282873E+01
 0.68108488659E+01 0.55926590814E+01 0.46743777236E+01 0.40656311851E+01 0.37637510568E+01
 0.37635531740E+01 0.40652591209E+01 0.46742603112E+01 0.55929841588E+01 0.68113957979E+01
 0.83037378926E+01 0.10031634557E+02 0.11906291935E+02 0.13704542113E+02 0.15222196396E+02
 0.18801507682E+02 0.19286424083E+02 0.18801673804E+02 0.17441093460E+02 0.15449715489E+02
 0.13143676643E+02 0.10839864485E+02 0.87688456516E+01 0.70118552550E+01 0.55926590814E+01
 0.45133776736E+01 0.37635893248E+01 0.33253091371E+01 0.31815251821E+01 0.33252847188E+01
 0.37635531740E+01 0.45133572996E+01 0.55926745253E+01 0.70118948153E+01 0.87688806147E+01
 0.10839872248E+02 0.13143629002E+02 0.15449577559E+02 0.17440884359E+02 0.20289706417E+02
 0.20289663912E+02 0.19148324907E+02 0.17116940426E+02 0.14599581001E+02 0.12010864266E+02
 0.96311789362E+01 0.75950032197E+01 0.59439461309E+01 0.46743777236E+01 0.37635893248E+01
 0.31813440631E+01 0.28989980275E+01 0.28990649305E+01 0.31815251821E+01 0.37637510568E+01
 0.46742697599E+01 0.59434728477E+01 0.75944424333E+01 0.96309600376E+01 0.12011130824E+02
 0.14600084114E+02 0.17117346926E+02 0.19148513272E+02 0.20741029360E+02 0.20122819736E+02
 0.18418945753E+02 0.16010057196E+02 0.13340288947E+02 0.10767229764E+02 0.85009744814E+01
 0.66262630485E+01 0.51548112426E+01 0.40656311851E+01 0.33253091371E+01 0.28989980275E+01
 0.27602011513E+01 0.28989980275E+01 0.33253091371E+01 0.40656311851E+01 0.51548112426E+01
 0.66262630485E+01 0.85009744814E+01 0.10767229764E+02 0.13340288947E+02 0.16010057196E+02
 0.18418945753E+02 0.20122819736E+02 0.20289706417E+02 0.19148513272E+02 0.17117346926E+02
 0.14600084114E+02 0.12011130824E+02 0.96309600376E+01 0.75944424333E+01 0.59434728477E+01
 0.46742697599E+01 0.37637510568E+01 0.31815251821E+01 0.28990649305E+01 0.28989980275E+01
 0.31813440631E+01 0.37635893248E+01 0.46743777236E+01 0.59439461309E+01 0.75950032197E+01
 0.96311789362E+01 0.12010864266E+02 0.14599581001E+02 0.17116940426E+02 0.19148324907E+02
 0.20289663912E+02 0.18801507682E+02 0.17440884359E+02 0.15449577559E+02 0.13143629002E+02
 0.10839872248E+02 0.87688806147E+01 0.70118948153E+01 0.55926745253E+01 0.45133572996E+01
 0.37635531740E+01 0.33252847188E+01 0.31815251821E+01 0.33253091371E+01 0.37635893248E+01
 0.45133776736E+01 0.55926590814E+01 0.70118552550E+01 0.87688456516E+01 0.10839864485E+02
 0.13143676643E+02 0.15449715489E+02 0.17441093460E+02 0.18801673804E+02 0.19286424083E+02
 0.16316708800E+02 0.15222196396E+02 0.13704542113E+02 0.11906291935E+02 0.10031634557E+02
 0.83037378926E+01 0.68113957979E+01 0.55929841588E+01 0.46742603112E+01 0.40652591209E+01
 0.37635531740E+01 0.37637510568E+01 0.40656311851E+01 0.46743777236E+01 0.55926590814E+01
 0.68108488659E+01 0.83033282873E+01 0.10031530104E+02 0.11906477795E+02 0.13705022699E+02
 0.15222961978E+02 0.16317498606E+02 0.16891475193E+02 0.16891129714E+02 0.13376278571E+02
 0.13064267488E+02 0.12346194403E+02 0.11184419064E+02 0.97422227108E+01 0.83033325920E+01
 0.70118657197E+01 0.59439795705E+01 0.51548258169E+01 0.46742603112E+01 0.45133572996E+01
 0.46742697599E+01 0.51548112426E+01 0.59439461309E+01 0.70118552550E+01 0.83033282873E+01
 0.97421411403E+01 0.11184272725E+02 0.12346204928E+02 0.13064679392E+02 0.13377014336E+02
 0.13449340726E+02 0.13450312708E+02 0.13448743900E+02 0.10953097947E+02 0.11716641993E+02
 0.11829712181E+02 0.11184587318E+02 0.10031513209E+02 0.87683415979E+01 0.75944632821E+01
 0.66262747577E+01 0.59439795705E+01 0.55929841588E+01 0.55926745253E+01 0.59434728477E+01
 0.66262630485E+01 0.75950032197E+01 0.87688456516E+01 0.10031530104E+02 0.11184272725E+02
 0.11829526004E+02 0.11716836256E+02 0.10953568358E+02 0.99693983152E+01 0.92974999131E+01
 0.92973132259E+01 0.99689396642E+01 0.10010862749E+02 0.11716798814E+02 0.12346204613E+02
 0.11906404896E+02 0.10839855511E+02 0.96312861069E+01 0.85010840154E+01 0.75944632821E+01
 0.70118657197E+01 0.68113957979E+01 0.70118948153E+01 0.75944424333E+01 0.85009744814E+01
 0.96311789362E+01 0.10839864485E+02 0.11906477795E+02 0.12346204928E+02 0.11716836256E+02
 0.10011300087E+02 0.77648449179E+01 0.58617943440E+01 0.51172817278E+01 0.58609877701E+01
 0.77639350228E+01 0.10953597243E+02 0.13064656017E+02 0.13704509652E+02 0.13143326788E+02
 0.12011405910E+02 0.10768221897E+02 0.96312861069E+01 0.87683415979E+01 0.83033325920E+01
 0.83037378926E+01 0.87688806147E+01 0.96309600376E+01 0.10767229764E+02 0.12010864266E+02
 0.13143676643E+02 0.13705022699E+02 0.13064679392E+02 0.10953568358E+02 0.77648449179E+01
 0.45258212675E+01 0.24816738641E+01 0.24810268585E+01 0.45245603058E+01 0.77641293281E+01
 0.13376597842E+02 0.15222624947E+02 0.15449719274E+02 0.14599950476E+02 0.13340767861E+02
 0.12011405910E+02 0.10839855511E+02 0.10031513209E+02 0.97422227108E+01 0.10031634557E+02
 0.10839872248E+02 0.12011130824E+02 0.13340288947E+02 0.14599581001E+02 0.15449715489E+02
 0.15222961978E+02 0.13377014336E+02 0.99693983152E+01 0.58617943440E+01 0.24816738641E+01
 0.11717724290E+01 0.24817429080E+01 0.58617791175E+01 0.99691573528E+01 0.16316558398E+02
 0.17441266584E+02 0.17118018280E+02 0.16010789615E+02 0.14599950476E+02 0.13143326788E+02
 0.11906404896E+02 0.11184587318E+02 0.11184419064E+02 0.11906291935E+02 0.13143629002E+02
 0.14600084114E+02 0.16010057196E+02 0.17116940426E+02 0.17441093460E+02 0.16317498606E+02
 0.13449340726E+02 0.92974999131E+01 0.51172817278E+01 0.24810268585E+01 0.24817429080E+01
 0.51186271135E+01 0.92979886575E+01 0.13448545520E+02 0.18801497684E+02 0.19149039757E+02
 0.18420012746E+02 0.17118018280E+02 0.15449719274E+02 0.13704509652E+02 0.12346204613E+02
 0.11829712181E+02 0.12346194403E+02 0.13704542113E+02 0.15449577559E+02 0.17117346926E+02
 0.18418945753E+02 0.19148324907E+02 0.18801673804E+02 0.16891475193E+02 0.13450312708E+02
 0.92973132259E+01 0.58609877701E+01 0.45245603058E+01 0.58617791175E+01 0.92979886575E+01
 0.13450158492E+02 0.16890830129E+02 0.20290481913E+02 0.20123655261E+02 0.19149039757E+02
 0.17441266584E+02 0.15222624947E+02 0.13064656017E+02 0.11716798814E+02 0.11716641993E+02
 0.13064267488E+02 0.15222196396E+02 0.17440884359E+02 0.19148513272E+02 0.20122819736E+02
 0.20289663912E+02 0.19286424083E+02 0.16891129714E+02 0.13448743900E+02 0.99689396642E+01
 0.77639350228E+01 0.77641293281E+01 0.99691573528E+01 0.13448545520E+02 0.16890830129E+02
 0.19286669838E+02 0.20289600710E+02 0.19287307976E+02 0.16892074877E+02 0.13449140465E+02
 0.99689815842E+01 0.77641918412E+01 0.77648433067E+01 0.99700160598E+01 0.13449049094E+02
 0.16890758988E+02 0.19286137342E+02 0.20289673979E+02 0.20122764575E+02 0.19148400566E+02
 0.17441157622E+02 0.15222805055E+02 0.13064496140E+02 0.11716151741E+02 0.11716202289E+02
 0.13064636187E+02 0.15222879362E+02 0.17440800347E+02 0.19147433652E+02 0.20121737349E+02
 0.19287307976E+02 0.17212495706E+02 0.13522284361E+02 0.90910801180E+01 0.54332265622E+01
 0.40120108730E+01 0.54340103917E+01 0.90916930543E+01 0.13521806557E+02 0.17211088058E+02
 0.19286162200E+02 0.19701629568E+02 0.18963170566E+02 0.17612679170E+02 0.15868000420E+02
 0.14034673728E+02 0.12604333468E+02 0.12060107287E+02 0.12604977973E+02 0.14035392070E+02
 0.15868012977E+02 0.17611749721E+02 0.18962076195E+02 0.19701522958E+02 0.16892074877E+02
 0.13522284361E+02 0.87381325671E+01 0.39609426966E+01 0.95878492396E+00 0.95859899613E+00
 0.39605546514E+01 0.87377415309E+01 0.13521730711E+02 0.16891132098E+02 0.18305790735E+02
 0.18070546307E+02 0.16915784340E+02 0.15415136077E+02 0.13846492273E+02 0.12500681750E+02
 0.11711475468E+02 0.11711962018E+02 0.12501453315E+02 0.13846419366E+02 0.15414160779E+02
 0.16914980529E+02 0.18070768020E+02 0.18306776930E+02 0.13449140465E+02 0.90910801180E+01
 0.39609426966E+01 -.21644700962E+00 -.18289800900E+01 -.21767157541E+00 0.39593742987E+01
 0.90900899411E+01 0.13448800170E+02 0.15969528465E+02 0.16534242660E+02 0.15741959756E+02
 0.14399023931E+02 0.12956764780E+02 0.11673558340E+02 0.10781683960E+02 0.10460816183E+02
 0.10782040818E+02 0.11673460737E+02 0.12956020263E+02 0.14398472049E+02 0.15742198745E+02
 0.16534825814E+02 0.15969861255E+02 0.99689815842E+01 0.54332265622E+01 0.95878492396E+00
 -.18289800900E+01 -.18296273766E+01 0.95723179897E+00 0.54316579786E+01 0.99681349457E+01
 0.13198892070E+02 0.14547870995E+02 0.14278841568E+02 0.13146334758E+02 0.11813630722E+02
 0.10570093178E+02 0.96150589174E+01 0.90963647746E+01 0.90962509225E+01 0.96148162630E+01
 0.10569951919E+02 0.11813739302E+02 0.13146551033E+02 0.14278862615E+02 0.14547681459E+02
 0.13198960618E+02 0.77641918412E+01 0.40120108730E+01 0.95859899613E+00 -.21767157541E+00
 0.95723179897E+00 0.40104599739E+01 0.77634708765E+01 0.10913423103E+02 0.12617333446E+02
 0.12769328318E+02 0.11877163875E+02 0.10642965269E+02 0.94368540694E+01 0.84470072076E+01
 0.78027643672E+01 0.75797475731E+01 0.78028220486E+01 0.84470924053E+01 0.94369433395E+01
 0.10643086104E+02 0.11877319417E+02 0.12769375646E+02 0.12617166153E+02 0.10913377306E+02
 0.77648433067E+01 0.54340103917E+01 0.39605546514E+01 0.39593742987E+01 0.54316579786E+01
 0.77634708765E+01 0.10024839812E+02 0.11412890416E+02 0.11602043675E+02 0.10820141702E+02
 0.96284095143E+01 0.84329844911E+01 0.74078978874E+01 0.66698546819E+01 0.62865943459E+01
 0.62869266182E+01 0.66703156198E+01 0.74077571998E+01 0.84325166340E+01 0.96284346062E+01
 0.10820615502E+02 0.11602028191E+02 0.11412132352E+02 0.10024547806E+02 0.99700160598E+01
 0.90916930543E+01 0.87377415309E+01 0.90900899411E+01 0.99681349457E+01 0.10913423103E+02
 0.11412890416E+02 0.11159968357E+02 0.10210933952E+02 0.89354803437E+01 0.76837252227E+01
 0.65970677941E+01 0.57698172362E+01 0.52576554159E+01 0.50850282290E+01 0.52578228225E+01
 0.57698014435E+01 0.65968426407E+01 0.76836576824E+01 0.89355984115E+01 0.10210730717E+02
 0.11159270890E+02 0.11412468508E+02 0.10914223792E+02 0.13449049094E+02 0.13521806557E+02
 0.13521730711E+02 0.13448800170E+02 0.13198892070E+02 0.12617333446E+02 0.11602043675E+02
 0.10210933952E+02 0.86892467122E+01 0.72837131519E+01 0.60832316873E+01 0.51487425109E+01
 0.45167063578E+01 0.42000026438E+01 0.41998634808E+01 0.45164941230E+01 0.51487800878E+01
 0.60834957532E+01 0.72838533696E+01 0.86890570853E+01 0.10210627831E+02 0.11601982001E+02
 0.12617602080E+02 0.13199265762E+02 0.16890758988E+02 0.17211088058E+02 0.16891132098E+02
 0.15969528465E+02 0.14547870995E+02 0.12769328318E+02 0.10820141702E+02 0.89354803437E+01
 0.72837131519E+01 0.59077561632E+01 0.48329888091E+01 0.40718753483E+01 0.36219811634E+01
 0.34736816576E+01 0.36219434962E+01 0.40718306562E+01 0.48329832823E+01 0.59078562158E+01
 0.72839755909E+01 0.89358426769E+01 0.10820374904E+02 0.12769203273E+02 0.14547392604E+02
 0.15968952382E+02 0.19286137342E+02 0.19286162200E+02 0.18305790735E+02 0.16534242660E+02
 0.14278841568E+02 0.11877163875E+02 0.96284095143E+01 0.76837252227E+01 0.60832316873E+01
 0.48329888091E+01 0.39240345698E+01 0.33376902607E+01 0.30520460114E+01 0.30521180209E+01
 0.33377920664E+01 0.39239955134E+01 0.48328408549E+01 0.60831723295E+01 0.76838442793E+01
 0.96285701229E+01 0.11877183373E+02 0.14278703593E+02 0.16534075255E+02 0.18305694649E+02
 0.20289673979E+02 0.19701629568E+02 0.18070546307E+02 0.15741959756E+02 0.13146334758E+02
 0.10642965269E+02 0.84329844911E+01 0.65970677941E+01 0.51487425109E+01 0.40718753483E+01
 0.33376902607E+01 0.29142017741E+01 0.27762176498E+01 0.29142341743E+01 0.33378276723E+01
 0.40720015238E+01 0.51485682644E+01 0.65965433513E+01 0.84325083143E+01 0.10642984000E+02
 0.13146808791E+02 0.15742413992E+02 0.18070644812E+02 0.19701517981E+02 0.20122764575E+02
 0.18963170566E+02 0.16915784340E+02 0.14399023931E+02 0.11813630722E+02 0.94368540694E+01
 0.74078978874E+01 0.57698172362E+01 0.45167063578E+01 0.36219811634E+01 0.30520460114E+01
 0.27762176498E+01 0.27761675220E+01 0.30519773601E+01 0.36220077706E+01 0.45167912593E+01
 0.57698315685E+01 0.74078253049E+01 0.94368138414E+01 0.11813680574E+02 0.14399048706E+02
 0.16915651472E+02 0.18962938794E+02 0.20122647510E+02 0.19148400566E+02 0.17612679170E+02
 0.15415136077E+02 0.12956764780E+02 0.10570093178E+02 0.84470072076E+01 0.66698546819E+01
 0.52576554159E+01 0.42000026438E+01 0.34736816576E+01 0.30521180209E+01 0.29142341743E+01
 0.30519773601E+01 0.34734324968E+01 0.41998769894E+01 0.52579517138E+01 0.66705101665E+01
 0.84475103403E+01 0.10569989966E+02 0.12956148789E+02 0.15414503525E+02 0.17612376666E+02
 0.19148360058E+02 0.19701479277E+02 0.17441157622E+02 0.15868000420E+02 0.13846492273E+02
 0.11673558340E+02 0.96150589174E+01 0.78027643672E+01 0.62865943459E+01 0.50850282290E+01
 0.41998634808E+01 0.36219434962E+01 0.33377920664E+01 0.33378276723E+01 0.36220077706E+01
 0.41998769894E+01 0.50849736285E+01 0.62865559859E+01 0.78028393349E+01 0.96152233260E+01
 0.11673658056E+02 0.13846390627E+02 0.15867720225E+02 0.17440866739E+02 0.18305798923E+02
 0.18305920451E+02 0.15222805055E+02 0.14034673728E+02 0.12500681750E+02 0.10781683960E+02
 0.90963647746E+01 0.75797475731E+01 0.62869266182E+01 0.52578228225E+01 0.45164941230E+01
 0.40718306562E+01 0.39239955134E+01 0.40720015238E+01 0.45167912593E+01 0.52579517138E+01
 0.62865559859E+01 0.75790588022E+01 0.90960394773E+01 0.10782118687E+02 0.12501440169E+02
 0.14034966018E+02 0.15222404358E+02 0.15968832957E+02 0.16223464569E+02 0.15969365514E+02
 0.13064496140E+02 0.12604333468E+02 0.11711475468E+02 0.10460816183E+02 0.90962509225E+01
 0.78028220486E+01 0.66703156198E+01 0.57698014435E+01 0.51487800878E+01 0.48329832823E+01
 0.48328408549E+01 0.51485682644E+01 0.57698315685E+01 0.66705101665E+01 0.78028393349E+01
 0.90960394773E+01 0.10460734892E+02 0.11711753402E+02 0.12604664544E+02 0.13064417105E+02
 0.13198899722E+02 0.13197351249E+02 0.13197609238E+02 0.13199342303E+02 0.11716151741E+02
 0.12060107287E+02 0.11711962018E+02 0.10782040818E+02 0.96148162630E+01 0.84470924053E+01
 0.74077571998E+01 0.65968426407E+01 0.60834957532E+01 0.59078562158E+01 0.60831723295E+01
 0.65965433513E+01 0.74078253049E+01 0.84475103403E+01 0.96152233260E+01 0.10782118687E+02
 0.11711753402E+02 0.12059914852E+02 0.11716185606E+02 0.10913956586E+02 0.10123103196E+02
 0.97974292232E+01 0.10122929724E+02 0.10913753648E+02 0.11716202289E+02 0.12604977973E+02
 0.12501453315E+02 0.11673460737E+02 0.10569951919E+02 0.94369433395E+01 0.84325166340E+01
 0.76836576824E+01 0.72838533696E+01 0.72839755909E+01 0.76838442793E+01 0.84325083143E+01
 0.94368138414E+01 0.10569989966E+02 0.11673658056E+02 0.12501440169E+02 0.12604664544E+02
 0.11716185606E+02 0.10024824926E+02 0.81706332487E+01 0.69634558439E+01 0.69627584152E+01
 0.81692267946E+01 0.10023934768E+02 0.13064636187E+02 0.14035392070E+02 0.13846419366E+02
 0.12956020263E+02 0.11813739302E+02 0.10643086104E+02 0.96284346062E+01 0.89355984115E+01
 0.86890570853E+01 0.89358426769E+01 0.96285701229E+01 0.10642984000E+02 0.11813680574E+02
 0.12956148789E+02 0.13846390627E+02 0.14034966018E+02 0.13064417105E+02 0.10913956586E+02
 0.81706332487E+01 0.58579403520E+01 0.49523291615E+01 0.58560331756E+01 0.81684406072E+01
 0.10912970171E+02 0.15222879362E+02 0.15868012977E+02 0.15414160779E+02 0.14398472049E+02
 0.13146551033E+02 0.11877319417E+02 0.10820615502E+02 0.10210730717E+02 0.10210627831E+02
 0.10820374904E+02 0.11877183373E+02 0.13146808791E+02 0.14399048706E+02 0.15414503525E+02
 0.15867720225E+02 0.15222404358E+02 0.13198899722E+02 0.10123103196E+02 0.69634558439E+01
 0.49523291615E+01 0.49513935429E+01 0.69613999713E+01 0.10121453584E+02 0.13198530435E+02
 0.17440800347E+02 0.17611749721E+02 0.16914980529E+02 0.15742198745E+02 0.14278862615E+02
 0.12769375646E+02 0.11602028191E+02 0.11159270890E+02 0.11601982001E+02 0.12769203273E+02
 0.14278703593E+02 0.15742413992E+02 0.16915651472E+02 0.17612376666E+02 0.17440866739E+02
 0.15968832957E+02 0.13197351249E+02 0.97974292232E+01 0.69627584152E+01 0.58560331756E+01
 0.69613999713E+01 0.97960004739E+01 0.13196877072E+02 0.15969025700E+02 0.19147433652E+02
 0.18962076195E+02 0.18070768020E+02 0.16534825814E+02 0.14547681459E+02 0.12617166153E+02
 0.11412132352E+02 0.11412468508E+02 0.12617602080E+02 0.14547392604E+02 0.16534075255E+02
 0.18070644812E+02 0.18962938794E+02 0.19148360058E+02 0.18305798923E+02 0.16223464569E+02
 0.13197609238E+02 0.10122929724E+02 0.81692267946E+01 0.81684406072E+01 0.10121453584E+02
 0.13196877072E+02 0.16223580486E+02 0.18305654520E+02 0.20121737349E+02 0.19701522958E+02
 0.18306776930E+02 0.15969861255E+02 0.13198960618E+02 0.10913377306E+02 0.10024547806E+02
 0.10914223792E+02 0.13199265762E+02 0.15968952382E+02 0.18305694649E+02 0.19701517981E+02
 0.20122647510E+02 0.19701479277E+02 0.18305920451E+02 0.15969365514E+02 0.13199342303E+02
 0.10913753648E+02 0.10023934768E+02 0.10912970171E+02 0.13198530435E+02 0.15969025700E+02
 0.18305654520E+02 0.19700705777E+02 0.18800135807E+02 0.16890260480E+02 0.13450298601E+02
 0.92982431905E+01 0.58618709761E+01 0.45248518537E+01 0.58617746771E+01 0.92982032784E+01
 0.13450706804E+02 0.16891370507E+02 0.18801521075E+02 0.19148296220E+02 0.18418860319E+02
 0.17117220119E+02 0.15449702486E+02 0.13704971992E+02 0.12346588499E+02 0.11829824857E+02
 0.12346195304E+02 0.13704611129E+02 0.15449811132E+02 0.17117680679E+02 0.18418956859E+02
 0.19147485641E+02 0.16890260480E+02 0.13521734604E+02 0.87385130937E+01 0.39609658855E+01
 0.95801695549E+00 0.95799868456E+00 0.39610170497E+01 0.87388532940E+01 0.13522464801E+02
 0.16891202962E+02 0.18305671095E+02 0.18070510457E+02 0.16915670731E+02 0.15414956797E+02
 0.13846598434E+02 0.12501176963E+02 0.11711937375E+02 0.11712001842E+02 0.12501302675E+02
 0.13846673769E+02 0.15414928149E+02 0.16915477055E+02 0.18070026137E+02 0.18304854663E+02
 0.13450298601E+02 0.87385130937E+01 0.32271457742E+01 -.12476628319E+01 -.29721923410E+01
 -.12469409638E+01 0.32278216217E+01 0.87386537518E+01 0.13450301326E+02 0.16223325144E+02
 0.16917903642E+02 0.16152349956E+02 0.14779367308E+02 0.13295744370E+02 0.11972074295E+02
 0.11049095897E+02 0.10715925607E+02 0.11048793155E+02 0.11971933998E+02 0.13295921663E+02
 0.14779379698E+02 0.16151762231E+02 0.16917026453E+02 0.16222838603E+02 0.92982431905E+01
 0.39609658855E+01 -.12476628319E+01 -.44765789655E+01 -.44758966753E+01 -.12465389923E+01
 0.39611307909E+01 0.92975829793E+01 0.13196890170E+02 0.14977081808E+02 0.14897370252E+02
 0.13777181233E+02 0.12393900663E+02 0.11089500774E+02 0.10081851744E+02 0.95325695542E+01
 0.95321101999E+01 0.10081070004E+02 0.11089349327E+02 0.12394330532E+02 0.13777198007E+02
 0.14896527221E+02 0.14976259627E+02 0.13197052432E+02 0.58618709761E+01 0.95801695549E+00
 -.29721923410E+01 -.44758966753E+01 -.29711815199E+01 0.95889341287E+00 0.58617734625E+01
 0.10121617373E+02 0.12665352961E+02 0.13300009545E+02 0.12576122694E+02 0.11331577901E+02
 0.10073943119E+02 0.90263370886E+01 0.83388024773E+01 0.80997877187E+01 0.83387389813E+01
 0.90263098723E+01 0.10073916587E+02 0.11331340550E+02 0.12575649097E+02 0.13299726904E+02
 0.12665701469E+02 0.10122300198E+02 0.45248518537E+01 0.95799868456E+00 -.12469409638E+01
 -.12465389923E+01 0.95889341287E+00 0.45254960925E+01 0.81688073670E+01 0.10753443382E+02
 0.11756081777E+02 0.11375352387E+02 0.10280515146E+02 0.90767530793E+01 0.80110382172E+01
 0.72306628131E+01 0.68217253285E+01 0.68220212106E+01 0.72312309238E+01 0.80112229057E+01
 0.90762496638E+01 0.10279793792E+02 0.11375232962E+02 0.11756803187E+02 0.10754336616E+02
 0.81690137618E+01 0.58617746771E+01 0.39610170497E+01 0.32278216217E+01 0.39611307909E+01
 0.58617734625E+01 0.81688073670E+01 0.10009011336E+02 0.10794515653E+02 0.10461575564E+02
 0.94243583318E+01 0.82332761517E+01 0.71434567475E+01 0.62893153587E+01 0.57521009161E+01
 0.55696413227E+01 0.57521026965E+01 0.62893269601E+01 0.71434382875E+01 0.82331689300E+01
 0.94242100378E+01 0.10461565619E+02 0.10794770131E+02 0.10009412067E+02 0.81690761547E+01
 0.92982032784E+01 0.87388532940E+01 0.87386537518E+01 0.92975829793E+01 0.10121617373E+02
 0.10753443382E+02 0.10794515653E+02 0.10117717306E+02 0.89403203116E+01 0.76662441475E+01
 0.65100479698E+01 0.55748214549E+01 0.49277171377E+01 0.45996045905E+01 0.45994025190E+01
 0.49273401148E+01 0.55747089708E+01 0.65103250286E+01 0.76665049719E+01 0.89401149953E+01
 0.10117211885E+02 0.10794370310E+02 0.10753987725E+02 0.10122473944E+02 0.13450706804E+02
 0.13522464801E+02 0.13450301326E+02 0.13196890170E+02 0.12665352961E+02 0.11756081777E+02
 0.10461575564E+02 0.89403203116E+01 0.74663186909E+01 0.61762684025E+01 0.51297897170E+01
 0.43696723494E+01 0.39136773132E+01 0.37623891265E+01 0.39136816919E+01 0.43696730439E+01
 0.51297897887E+01 0.61762765640E+01 0.74663178555E+01 0.89402772511E+01 0.10461520487E+02
 0.11756152728E+02 0.12665682690E+02 0.13197408995E+02 0.16891370507E+02 0.16891202962E+02
 0.16223325144E+02 0.14977081808E+02 0.13300009545E+02 0.11375352387E+02 0.94243583318E+01
 0.76662441475E+01 0.61762684025E+01 0.49790687975E+01 0.40891785901E+01 0.35068404038E+01
 0.32210695210E+01 0.32211695921E+01 0.35069978436E+01 0.40891523052E+01 0.49788676987E+01
 0.61762010921E+01 0.76665130289E+01 0.94247196704E+01 0.11375414385E+02 0.13299807304E+02
 0.14977029268E+02 0.16223561798E+02 0.18801521075E+02 0.18305671095E+02 0.16917903642E+02
 0.14897370252E+02 0.12576122694E+02 0.10280515146E+02 0.82332761517E+01 0.65100479698E+01
 0.51297897170E+01 0.40891785901E+01 0.33724368554E+01 0.29565949915E+01 0.28207989026E+01
 0.29565996712E+01 0.33724304997E+01 0.40891606797E+01 0.51297773450E+01 0.65100389012E+01
 0.82332427997E+01 0.10280463750E+02 0.12576136303E+02 0.14897539342E+02 0.16918195066E+02
 0.18305905085E+02 0.19148296220E+02 0.18070510457E+02 0.16152349956E+02 0.13777181233E+02
 0.11331577901E+02 0.90767530793E+01 0.71434567475E+01 0.55748214549E+01 0.43696723494E+01
 0.35068404038E+01 0.29565949915E+01 0.26902524730E+01 0.26902312209E+01 0.29566203288E+01
 0.35070048998E+01 0.43698259327E+01 0.55746823628E+01 0.71430021277E+01 0.90763515595E+01
 0.11331616187E+02 0.13777633874E+02 0.16152848479E+02 0.18070783181E+02 0.19148363108E+02
 0.18418860319E+02 0.16915670731E+02 0.14779367308E+02 0.12393900663E+02 0.10073943119E+02
 0.80110382172E+01 0.62893153587E+01 0.49277171377E+01 0.39136773132E+01 0.32210695210E+01
 0.28207989026E+01 0.26902312209E+01 0.28208269753E+01 0.32211052838E+01 0.39136931862E+01
 0.49277061102E+01 0.62892973500E+01 0.80110247678E+01 0.10073920598E+02 0.12393874557E+02
 0.14779387336E+02 0.16915761907E+02 0.18418954433E+02 0.18962942083E+02 0.17117220119E+02
 0.15414956797E+02 0.13295744370E+02 0.11089500774E+02 0.90263370886E+01 0.72306628131E+01
 0.57521009161E+01 0.45996045905E+01 0.37623891265E+01 0.32211695921E+01 0.29565996712E+01
 0.29566203288E+01 0.32211052838E+01 0.37621387021E+01 0.45994274107E+01 0.57523503323E+01
 0.72312318004E+01 0.90266739802E+01 0.11089262039E+02 0.13295210919E+02 0.15414653420E+02
 0.17117274163E+02 0.18070743358E+02 0.18070651611E+02 0.15449702486E+02 0.13846598434E+02
 0.11972074295E+02 0.10081851744E+02 0.83388024773E+01 0.68217253285E+01 0.55696413227E+01
 0.45994025190E+01 0.39136816919E+01 0.35069978436E+01 0.33724304997E+01 0.35070048998E+01
 0.39136931862E+01 0.45994274107E+01 0.55696903482E+01 0.68217767370E+01 0.83388004644E+01
 0.10081764831E+02 0.11971948600E+02 0.13846523712E+02 0.15449716158E+02 0.16534001335E+02
 0.16917917409E+02 0.16533955616E+02 0.13704971992E+02 0.12501176963E+02 0.11049095897E+02
 0.95325695542E+01 0.80997877187E+01 0.68220212106E+01 0.57521026965E+01 0.49273401148E+01
 0.43696730439E+01 0.40891523052E+01 0.40891606797E+01 0.43698259327E+01 0.49277061102E+01
 0.57523503323E+01 0.68217767370E+01 0.80992070910E+01 0.95322028320E+01 0.11049206288E+02
 0.12501479178E+02 0.13705074165E+02 0.14547076146E+02 0.14976536557E+02 0.14976632646E+02
 0.14547205164E+02 0.12346588499E+02 0.11711937375E+02 0.10715925607E+02 0.95321101999E+01
 0.83387389813E+01 0.72312309238E+01 0.62893269601E+01 0.55747089708E+01 0.51297897887E+01
 0.49788676987E+01 0.51297773450E+01 0.55746823628E+01 0.62892973500E+01 0.72312318004E+01
 0.83388004644E+01 0.95322028320E+01 0.10715938760E+02 0.11711749510E+02 0.12346185299E+02
 0.12617198971E+02 0.12665362163E+02 0.12657448532E+02 0.12665682690E+02 0.12617674020E+02
 0.11829824857E+02 0.11712001842E+02 0.11048793155E+02 0.10081070004E+02 0.90263098723E+01
 0.80112229057E+01 0.71434382875E+01 0.65103250286E+01 0.61762765640E+01 0.61762010921E+01
 0.65100389012E+01 0.71430021277E+01 0.80110247678E+01 0.90266739802E+01 0.10081764831E+02
 0.11049206288E+02 0.11711749510E+02 0.11829010325E+02 0.11411937560E+02 0.10753814857E+02
 0.10274543786E+02 0.10274855814E+02 0.10754627159E+02 0.11412944987E+02 0.12346195304E+02
 0.12501302675E+02 0.11971933998E+02 0.11089349327E+02 0.10073916587E+02 0.90762496638E+01
 0.82331689300E+01 0.76665049719E+01 0.74663178555E+01 0.76665130289E+01 0.82332427997E+01
 0.90763515595E+01 0.10073920598E+02 0.11089262039E+02 0.11971948600E+02 0.12501479178E+02
 0.12346185299E+02 0.11411937560E+02 0.10008981418E+02 0.87529021353E+01 0.82505884005E+01
 0.87539170006E+01 0.10010208283E+02 0.11412594750E+02 0.13704611129E+02 0.13846673769E+02
 0.13295921663E+02 0.12394330532E+02 0.11331340550E+02 0.10279793792E+02 0.94242100378E+01
 0.89401149953E+01 0.89402772511E+01 0.94247196704E+01 0.10280463750E+02 0.11331616187E+02
 0.12393874557E+02 0.13295210919E+02 0.13846523712E+02 0.13705074165E+02 0.12617198971E+02
 0.10753814857E+02 0.87529021353E+01 0.74557138721E+01 0.74564098713E+01 0.87543112248E+01