       N       E                     dE             d eps       ncg     rms          rms(c)
DAV:   1     0.122346754174E+01    0.12235E+01   -0.22299E+03   936   0.437E+02
DAV:   2    -0.763878936151E+01   -0.88623E+01   -0.83472E+01  1424   0.609E+01
DAV:   3    -0.770693213979E+01   -0.68143E-01   -0.68115E-01  1040   0.634E+00
DAV:   4    -0.770705912130E+01   -0.12698E-03   -0.12698E-03  1496   0.268E-01
DAV:   5    -0.770705917881E+01   -0.57507E-07   -0.56471E-07  1056   0.329E-03    0.466E+00
DAV:   6    -0.709756295967E+01    0.60950E+00   -0.51113E-01   936   0.398E+00    0.241E+00
DAV:   7    -0.689941514996E+01    0.19815E+00   -0.50049E-01  1072   0.398E+00    0.286E-01
DAV:   8    -0.689861118920E+01    0.80396E-03   -0.11414E-02   976   0.846E-01    0.846E-02
DAV:   9    -0.689830277736E+01    0.30841E-03   -0.91093E-04  1248   0.183E-01    0.105E-02
DAV:  10    -0.689830452051E+01   -0.17432E-05   -0.11446E-05   496   0.325E-02
   1 F= -.68983045E+01 E0= -.68972675E+01  d E =-.207408E-02
