diamond Si                              
   5.80000000000000     
     0.000000    0.490819    0.490819
     0.490819    0.000000    0.490819
     0.490819    0.490819    0.000000
   Si
     2
Direct
  0.875000  0.875000  0.875000
  0.125000  0.125000  0.125000
 
   32   32   32
 0.22321994391E+02 0.22342031440E+02 0.22345775848E+02 0.22191352801E+02 0.21646487233E+02
 0.20576332165E+02 0.19201223243E+02 0.18025095065E+02 0.17561215559E+02 0.18025152567E+02
 0.19201165439E+02 0.20576046558E+02 0.21646083953E+02 0.22191066563E+02 0.22345755629E+02
 0.22342246867E+02 0.22322298540E+02 0.22342246867E+02 0.22345755629E+02 0.22191066563E+02
 0.21646083953E+02 0.20576046558E+02 0.19201165439E+02 0.18025152567E+02 0.17561215559E+02
 0.18025095065E+02 0.19201223243E+02 0.20576332165E+02 0.21646487233E+02 0.22191352801E+02
 0.22345775848E+02 0.22342031440E+02 0.22342031440E+02 0.22872805334E+02 0.23218294063E+02
 0.22995476779E+02 0.21887356706E+02 0.20031774130E+02 0.18049074851E+02 0.16765697746E+02
 0.16765699432E+02 0.18049057797E+02 0.20031694530E+02 0.21887183658E+02 0.22995223265E+02
 0.23218059715E+02 0.22872768496E+02 0.22342285285E+02 0.21805831304E+02 0.21325453368E+02
 0.20857365688E+02 0.20306593576E+02 0.19585947267E+02 0.18680214527E+02 0.17786129053E+02
 0.17220953372E+02 0.17220966001E+02 0.17786185144E+02 0.18680379735E+02 0.19586281041E+02
 0.20306992797E+02 0.20857562383E+02 0.21325284397E+02 0.21805455170E+02 0.22345775848E+02
 0.23218294063E+02 0.23464794095E+02 0.22550772170E+02 0.20412764646E+02 0.17637565786E+02
 0.15279714266E+02 0.14354141213E+02 0.15279743564E+02 0.17637559156E+02 0.20412637020E+02
 0.22550508345E+02 0.23464505339E+02 0.23218145503E+02 0.22345847567E+02 0.21325509187E+02
 0.20344401144E+02 0.19462682902E+02 0.18652248138E+02 0.17860261544E+02 0.17076142530E+02
 0.16355918289E+02 0.15822586804E+02 0.15623097096E+02 0.15822577616E+02 0.16355987389E+02
 0.17076327638E+02 0.17860471034E+02 0.18652342261E+02 0.19462593138E+02 0.20344175594E+02
 0.21325284397E+02 0.22191352801E+02 0.22995476779E+02 0.22550772170E+02 0.20515038047E+02
 0.17265736522E+02 0.13887455335E+02 0.11731415859E+02 0.11731474210E+02 0.13887513904E+02
 0.17265614462E+02 0.20514748378E+02 0.22550501126E+02 0.22995332865E+02 0.22191272484E+02
 0.20857504411E+02 0.19462662368E+02 0.18172461310E+02 0.17038903580E+02 0.16047326444E+02
 0.15174532813E+02 0.14431952621E+02 0.13873480181E+02 0.13569758388E+02 0.13569664255E+02
 0.13873361142E+02 0.14432028613E+02 0.15174708700E+02 0.16047317731E+02 0.17038653723E+02
 0.18172208011E+02 0.19462593138E+02 0.20857562383E+02 0.21646487233E+02 0.21887356706E+02
 0.20412764646E+02 0.17265736522E+02 0.13323950118E+02 0.10034531205E+02 0.87532690993E+01
 0.10034421452E+02 0.13323868496E+02 0.17265748653E+02 0.20412755366E+02 0.21887192664E+02
 0.21646219092E+02 0.20306813644E+02 0.18652366634E+02 0.17038808838E+02 0.15598396294E+02
 0.14370429277E+02 0.13347115835E+02 0.12518145380E+02 0.11893617004E+02 0.11500667583E+02
 0.11366081738E+02 0.11500683986E+02 0.11893627020E+02 0.12518138089E+02 0.13347089519E+02
 0.14370356781E+02 0.15598252263E+02 0.17038653723E+02 0.18652342261E+02 0.20306992797E+02
 0.20576332165E+02 0.20031774130E+02 0.17637565786E+02 0.13887455335E+02 0.10034531205E+02
 0.75919216455E+01 0.75917847850E+01 0.10034348932E+02 0.13887548408E+02 0.17637834737E+02
 0.20031839440E+02 0.20576090526E+02 0.19586017845E+02 0.17860418174E+02 0.16047376692E+02
 0.14370348789E+02 0.12924605637E+02 0.11733531475E+02 0.10788337776E+02 0.10078145062E+02
 0.96010661301E+01 0.93609242456E+01 0.93610183847E+01 0.96012175421E+01 0.10078153750E+02
 0.10788219449E+02 0.11733465525E+02 0.12924642532E+02 0.14370356781E+02 0.16047317731E+02
 0.17860471034E+02 0.19586281041E+02 0.19201223243E+02 0.18049074851E+02 0.15279714266E+02
 0.11731415859E+02 0.87532690993E+01 0.75917847850E+01 0.87531376538E+01 0.11731357624E+02
 0.15279849997E+02 0.18049270786E+02 0.19201261650E+02 0.18680221302E+02 0.17076123723E+02
 0.15174606636E+02 0.13347102039E+02 0.11733520522E+02 0.10391307948E+02 0.93260666342E+01
 0.85220701005E+01 0.79614885267E+01 0.76308760266E+01 0.75217044650E+01 0.76309097714E+01
 0.79615292305E+01 0.85220910904E+01 0.93260572613E+01 0.10391267686E+02 0.11733465525E+02
 0.13347089519E+02 0.15174708700E+02 0.17076327638E+02 0.18680379735E+02 0.18025095065E+02
 0.16765697746E+02 0.14354141213E+02 0.11731474210E+02 0.10034421452E+02 0.10034348932E+02
 0.11731357624E+02 0.14354162497E+02 0.16765892411E+02 0.18025285900E+02 0.17786181625E+02
 0.16355813670E+02 0.14431885189E+02 0.12518149145E+02 0.10788309522E+02 0.93260964113E+01
 0.81543544923E+01 0.72610414090E+01 0.66214682528E+01 0.62111609333E+01 0.60112409809E+01
 0.60112431065E+01 0.62111634689E+01 0.66214789643E+01 0.72610765660E+01 0.81543844714E+01
 0.93260572613E+01 0.10788219449E+02 0.12518138089E+02 0.14432028613E+02 0.16355987389E+02
 0.17786185144E+02 0.17561215559E+02 0.16765699432E+02 0.15279743564E+02 0.13887513904E+02
 0.13323868496E+02 0.13887548408E+02 0.15279849997E+02 0.16765892411E+02 0.17561442155E+02
 0.17221134725E+02 0.15822632111E+02 0.13873320413E+02 0.11893556888E+02 0.10078106884E+02
 0.85220757519E+01 0.72610709519E+01 0.62890289516E+01 0.55790521877E+01 0.50996179096E+01
 0.48238460469E+01 0.47339990611E+01 0.48238673472E+01 0.50996513490E+01 0.55790831550E+01
 0.62890458114E+01 0.72610765660E+01 0.85220910904E+01 0.10078153750E+02 0.11893627020E+02
 0.13873361142E+02 0.15822577616E+02 0.17220966001E+02 0.18025152567E+02 0.18049057797E+02
 0.17637559156E+02 0.17265614462E+02 0.17265748653E+02 0.17637834737E+02 0.18049270786E+02
 0.18025285900E+02 0.17221134725E+02 0.15623337493E+02 0.13569794141E+02 0.11500594932E+02
 0.96010362083E+01 0.79614502345E+01 0.66215128522E+01 0.55790924185E+01 0.48066384913E+01
 0.42677139571E+01 0.39288018088E+01 0.37655867888E+01 0.37655514021E+01 0.39287632390E+01
 0.42677537240E+01 0.48067018915E+01 0.55790831550E+01 0.66214789643E+01 0.79615292305E+01
 0.96012175421E+01 0.11500683986E+02 0.13569664255E+02 0.15623097096E+02 0.17220953372E+02
 0.19201165439E+02 0.20031694530E+02 0.20412637020E+02 0.20514748378E+02 0.20412755366E+02
 0.20031839440E+02 0.19201261650E+02 0.17786181625E+02 0.15822632111E+02 0.13569794141E+02
 0.11366079912E+02 0.93609796247E+01 0.76308683839E+01 0.62111494397E+01 0.50996672010E+01
 0.42677877346E+01 0.36750482889E+01 0.32820850809E+01 0.30585394999E+01 0.29860391420E+01
 0.30585170777E+01 0.32820480712E+01 0.36750076470E+01 0.42677537240E+01 0.50996513490E+01
 0.62111634689E+01 0.76309097714E+01 0.93610183847E+01 0.11366081738E+02 0.13569758388E+02
 0.15822586804E+02 0.17786129053E+02 0.20576046558E+02 0.21887183658E+02 0.22550508345E+02
 0.22550501126E+02 0.21887192664E+02 0.20576090526E+02 0.18680221302E+02 0.16355813670E+02
 0.13873320413E+02 0.11500594932E+02 0.93609796247E+01 0.75217771400E+01 0.60112396541E+01
 0.48238422564E+01 0.39288192120E+01 0.32821664110E+01 0.28391425541E+01 0.25634751099E+01
 0.24313530675E+01 0.24313825163E+01 0.25635000009E+01 0.28390765066E+01 0.32820480712E+01
 0.39287632390E+01 0.48238673472E+01 0.60112431065E+01 0.75217044650E+01 0.93609242456E+01
 0.11500667583E+02 0.13873480181E+02 0.16355918289E+02 0.18680214527E+02 0.21646083953E+02
 0.22995223265E+02 0.23464505339E+02 0.22995332865E+02 0.21646219092E+02 0.19586017845E+02
 0.17076123723E+02 0.14431885189E+02 0.11893556888E+02 0.96010362083E+01 0.76308683839E+01
 0.60112396541E+01 0.47339952875E+01 0.37655457879E+01 0.30585157641E+01 0.25635092180E+01
 0.22386163016E+01 0.20544807422E+01 0.19947894840E+01 0.20544654758E+01 0.22385981195E+01
 0.25635000009E+01 0.30585170777E+01 0.37655514021E+01 0.47339990611E+01 0.60112409809E+01
 0.76308760266E+01 0.96010661301E+01 0.11893617004E+02 0.14431952621E+02 0.17076142530E+02
 0.19585947267E+02 0.22191066563E+02 0.23218059715E+02 0.23218145503E+02 0.22191272484E+02
 0.20306813644E+02 0.17860418174E+02 0.15174606636E+02 0.12518149145E+02 0.10078106884E+02
 0.79614502345E+01 0.62111494397E+01 0.48238422564E+01 0.37655457879E+01 0.29859541739E+01
 0.24313067254E+01 0.20544527715E+01 0.18205982978E+01 0.17084606165E+01 0.17084355957E+01
 0.18205599322E+01 0.20544654758E+01 0.24313825163E+01 0.29860391420E+01 0.37655867888E+01
 0.48238460469E+01 0.62111609333E+01 0.79614885267E+01 0.10078145062E+02 0.12518145380E+02
 0.15174532813E+02 0.17860261544E+02 0.20306593576E+02 0.22345755629E+02 0.22872768496E+02
 0.22345847567E+02 0.20857504411E+02 0.18652366634E+02 0.16047376692E+02 0.13347102039E+02
 0.10788309522E+02 0.85220757519E+01 0.66215128522E+01 0.50996672010E+01 0.39288192120E+01
 0.30585157641E+01 0.24313067254E+01 0.19947463433E+01 0.17084097127E+01 0.15458728739E+01
 0.14931172230E+01 0.15458827093E+01 0.17084355957E+01 0.19947894840E+01 0.24313530675E+01
 0.30585394999E+01 0.39288018088E+01 0.50996179096E+01 0.66214682528E+01 0.85220701005E+01
 0.10788337776E+02 0.13347115835E+02 0.16047326444E+02 0.18652248138E+02 0.20857365688E+02
 0.22342246867E+02 0.22342285285E+02 0.21325509187E+02 0.19462662368E+02 0.17038808838E+02
 0.14370348789E+02 0.11733520522E+02 0.93260964113E+01 0.72610709519E+01 0.55790924185E+01
 0.42677877346E+01 0.32821664110E+01 0.25635092180E+01 0.20544527715E+01 0.17084097127E+01
 0.14930836816E+01 0.13895830559E+01 0.13895924834E+01 0.14931172230E+01 0.17084606165E+01
 0.20544807422E+01 0.25634751099E+01 0.32820850809E+01 0.42677139571E+01 0.55790521877E+01
 0.72610414090E+01 0.93260666342E+01 0.11733531475E+02 0.14370429277E+02 0.17038903580E+02
 0.19462682902E+02 0.21325453368E+02 0.22322298540E+02 0.21805831304E+02 0.20344401144E+02
 0.18172461310E+02 0.15598396294E+02 0.12924605637E+02 0.10391307948E+02 0.81543544923E+01
 0.62890289516E+01 0.48066384913E+01 0.36750482889E+01 0.28391425541E+01 0.22386163016E+01
 0.18205982978E+01 0.15458728739E+01 0.13895830559E+01 0.13387881418E+01 0.13895830559E+01
 0.15458728739E+01 0.18205982978E+01 0.22386163016E+01 0.28391425541E+01 0.36750482889E+01
 0.48066384913E+01 0.62890289516E+01 0.81543544923E+01 0.10391307948E+02 0.12924605637E+02
 0.15598396294E+02 0.18172461310E+02 0.20344401144E+02 0.21805831304E+02 0.22342246867E+02
 0.21325453368E+02 0.19462682902E+02 0.17038903580E+02 0.14370429277E+02 0.11733531475E+02
 0.93260666342E+01 0.72610414090E+01 0.55790521877E+01 0.42677139571E+01 0.32820850809E+01
 0.25634751099E+01 0.20544807422E+01 0.17084606165E+01 0.14931172230E+01 0.13895924834E+01
 0.13895830559E+01 0.14930836816E+01 0.17084097127E+01 0.20544527715E+01 0.25635092180E+01
 0.32821664110E+01 0.42677877346E+01 0.55790924185E+01 0.72610709519E+01 0.93260964113E+01
 0.11733520522E+02 0.14370348789E+02 0.17038808838E+02 0.19462662368E+02 0.21325509187E+02
 0.22342285285E+02 0.22345755629E+02 0.20857365688E+02 0.18652248138E+02 0.16047326444E+02
 0.13347115835E+02 0.10788337776E+02 0.85220701005E+01 0.66214682528E+01 0.50996179096E+01
 0.39288018088E+01 0.30585394999E+01 0.24313530675E+01 0.19947894840E+01 0.17084355957E+01
 0.15458827093E+01 0.14931172230E+01 0.15458728739E+01 0.17084097127E+01 0.19947463433E+01
 0.24313067254E+01 0.30585157641E+01 0.39288192120E+01 0.50996672010E+01 0.66215128522E+01
 0.85220757519E+01 0.10788309522E+02 0.13347102039E+02 0.16047376692E+02 0.18652366634E+02
 0.20857504411E+02 0.22345847567E+02 0.22872768496E+02 0.22191066563E+02 0.20306593576E+02
 0.17860261544E+02 0.15174532813E+02 0.12518145380E+02 0.10078145062E+02 0.79614885267E+01
 0.62111609333E+01 0.48238460469E+01 0.37655867888E+01 0.29860391420E+01 0.24313825163E+01
 0.20544654758E+01 0.18205599322E+01 0.17084355957E+01 0.17084606165E+01 0.18205982978E+01
 0.20544527715E+01 0.24313067254E+01 0.29859541739E+01 0.37655457879E+01 0.48238422564E+01
 0.62111494397E+01 0.79614502345E+01 0.10078106884E+02 0.12518149145E+02 0.15174606636E+02
 0.17860418174E+02 0.20306813644E+02 0.22191272484E+02 0.23218145503E+02 0.23218059715E+02
 0.21646083953E+02 0.19585947267E+02 0.17076142530E+02 0.14431952621E+02 0.11893617004E+02
 0.96010661301E+01 0.76308760266E+01 0.60112409809E+01 0.47339990611E+01 0.37655514021E+01
 0.30585170777E+01 0.25635000009E+01 0.22385981195E+01 0.20544654758E+01 0.19947894840E+01
 0.20544807422E+01 0.22386163016E+01 0.25635092180E+01 0.30585157641E+01 0.37655457879E+01
 0.47339952875E+01 0.60112396541E+01 0.76308683839E+01 0.96010362083E+01 0.11893556888E+02
 0.14431885189E+02 0.17076123723E+02 0.19586017845E+02 0.21646219092E+02 0.22995332865E+02
 0.23464505339E+02 0.22995223265E+02 0.20576046558E+02 0.18680214527E+02 0.16355918289E+02
 0.13873480181E+02 0.11500667583E+02 0.93609242456E+01 0.75217044650E+01 0.60112431065E+01
 0.48238673472E+01 0.39287632390E+01 0.32820480712E+01 0.28390765066E+01 0.25635000009E+01
 0.24313825163E+01 0.24313530675E+01 0.25634751099E+01 0.28391425541E+01 0.32821664110E+01
 0.39288192120E+01 0.48238422564E+01 0.60112396541E+01 0.75217771400E+01 0.93609796247E+01
 0.11500594932E+02 0.13873320413E+02 0.16355813670E+02 0.18680221302E+02 0.20576090526E+02
 0.21887192664E+02 0.22550501126E+02 0.22550508345E+02 0.21887183658E+02 0.19201165439E+02
 0.17786129053E+02 0.15822586804E+02 0.13569758388E+02 0.11366081738E+02 0.93610183847E+01
 0.76309097714E+01 0.62111634689E+01 0.50996513490E+01 0.42677537240E+01 0.36750076470E+01
 0.32820480712E+01 0.30585170777E+01 0.29860391420E+01 0.30585394999E+01 0.32820850809E+01
 0.36750482889E+01 0.42677877346E+01 0.50996672010E+01 0.62111494397E+01 0.76308683839E+01
 0.93609796247E+01 0.11366079912E+02 0.13569794141E+02 0.15822632111E+02 0.17786181625E+02
 0.19201261650E+02 0.20031839440E+02 0.20412755366E+02 0.20514748378E+02 0.20412637020E+02
 0.20031694530E+02 0.18025152567E+02 0.17220953372E+02 0.15623097096E+02 0.13569664255E+02
 0.11500683986E+02 0.96012175421E+01 0.79615292305E+01 0.66214789643E+01 0.55790831550E+01
 0.48067018915E+01 0.42677537240E+01 0.39287632390E+01 0.37655514021E+01 0.37655867888E+01
 0.39288018088E+01 0.42677139571E+01 0.48066384913E+01 0.55790924185E+01 0.66215128522E+01
 0.79614502345E+01 0.96010362083E+01 0.11500594932E+02 0.13569794141E+02 0.15623337493E+02
 0.17221134725E+02 0.18025285900E+02 0.18049270786E+02 0.17637834737E+02 0.17265748653E+02
 0.17265614462E+02 0.17637559156E+02 0.18049057797E+02 0.17561215559E+02 0.17220966001E+02
 0.15822577616E+02 0.13873361142E+02 0.11893627020E+02 0.10078153750E+02 0.85220910904E+01
 0.72610765660E+01 0.62890458114E+01 0.55790831550E+01 0.50996513490E+01 0.48238673472E+01
 0.47339990611E+01 0.48238460469E+01 0.50996179096E+01 0.55790521877E+01 0.62890289516E+01
 0.72610709519E+01 0.85220757519E+01 0.10078106884E+02 0.11893556888E+02 0.13873320413E+02
 0.15822632111E+02 0.17221134725E+02 0.17561442155E+02 0.16765892411E+02 0.15279849997E+02
 0.13887548408E+02 0.13323868496E+02 0.13887513904E+02 0.15279743564E+02 0.16765699432E+02
 0.18025095065E+02 0.17786185144E+02 0.16355987389E+02 0.14432028613E+02 0.12518138089E+02
 0.10788219449E+02 0.93260572613E+01 0.81543844714E+01 0.72610765660E+01 0.66214789643E+01
 0.62111634689E+01 0.60112431065E+01 0.60112409809E+01 0.62111609333E+01 0.66214682528E+01
 0.72610414090E+01 0.81543544923E+01 0.93260964113E+01 0.10788309522E+02 0.12518149145E+02
 0.14431885189E+02 0.16355813670E+02 0.17786181625E+02 0.18025285900E+02 0.16765892411E+02
 0.14354162497E+02 0.11731357624E+02 0.10034348932E+02 0.10034421452E+02 0.11731474210E+02
 0.14354141213E+02 0.16765697746E+02 0.19201223243E+02 0.18680379735E+02 0.17076327638E+02
 0.15174708700E+02 0.13347089519E+02 0.11733465525E+02 0.10391267686E+02 0.93260572613E+01
 0.85220910904E+01 0.79615292305E+01 0.76309097714E+01 0.75217044650E+01 0.76308760266E+01
 0.79614885267E+01 0.85220701005E+01 0.93260666342E+01 0.10391307948E+02 0.11733520522E+02
 0.13347102039E+02 0.15174606636E+02 0.17076123723E+02 0.18680221302E+02 0.19201261650E+02
 0.18049270786E+02 0.15279849997E+02 0.11731357624E+02 0.87531376538E+01 0.75917847850E+01
 0.87532690993E+01 0.11731415859E+02 0.15279714266E+02 0.18049074851E+02 0.20576332165E+02
 0.19586281041E+02 0.17860471034E+02 0.16047317731E+02 0.14370356781E+02 0.12924642532E+02
 0.11733465525E+02 0.10788219449E+02 0.10078153750E+02 0.96012175421E+01 0.93610183847E+01
 0.93609242456E+01 0.96010661301E+01 0.10078145062E+02 0.10788337776E+02 0.11733531475E+02
 0.12924605637E+02 0.14370348789E+02 0.16047376692E+02 0.17860418174E+02 0.19586017845E+02
 0.20576090526E+02 0.20031839440E+02 0.17637834737E+02 0.13887548408E+02 0.10034348932E+02
 0.75917847850E+01 0.75919216455E+01 0.10034531205E+02 0.13887455335E+02 0.17637565786E+02
 0.20031774130E+02 0.21646487233E+02 0.20306992797E+02 0.18652342261E+02 0.17038653723E+02
 0.15598252263E+02 0.14370356781E+02 0.13347089519E+02 0.12518138089E+02 0.11893627020E+02
 0.11500683986E+02 0.11366081738E+02 0.11500667583E+02 0.11893617004E+02 0.12518145380E+02
 0.13347115835E+02 0.14370429277E+02 0.15598396294E+02 0.17038808838E+02 0.18652366634E+02
 0.20306813644E+02 0.21646219092E+02 0.21887192664E+02 0.20412755366E+02 0.17265748653E+02
 0.13323868496E+02 0.10034421452E+02 0.87532690993E+01 0.10034531205E+02 0.13323950118E+02
 0.17265736522E+02 0.20412764646E+02 0.21887356706E+02 0.22191352801E+02 0.20857562383E+02
 0.19462593138E+02 0.18172208011E+02 0.17038653723E+02 0.16047317731E+02 0.15174708700E+02
 0.14432028613E+02 0.13873361142E+02 0.13569664255E+02 0.13569758388E+02 0.13873480181E+02
 0.14431952621E+02 0.15174532813E+02 0.16047326444E+02 0.17038903580E+02 0.18172461310E+02
 0.19462662368E+02 0.20857504411E+02 0.22191272484E+02 0.22995332865E+02 0.22550501126E+02
 0.20514748378E+02 0.17265614462E+02 0.13887513904E+02 0.11731474210E+02 0.11731415859E+02
 0.13887455335E+02 0.17265736522E+02 0.20515038047E+02 0.22550772170E+02 0.22995476779E+02
 0.22345775848E+02 0.21325284397E+02 0.20344175594E+02 0.19462593138E+02 0.18652342261E+02
 0.17860471034E+02 0.17076327638E+02 0.16355987389E+02 0.15822577616E+02 0.15623097096E+02
 0.15822586804E+02 0.16355918289E+02 0.17076142530E+02 0.17860261544E+02 0.18652248138E+02
 0.19462682902E+02 0.20344401144E+02 0.21325509187E+02 0.22345847567E+02 0.23218145503E+02
 0.23464505339E+02 0.22550508345E+02 0.20412637020E+02 0.17637559156E+02 0.15279743564E+02
 0.14354141213E+02 0.15279714266E+02 0.17637565786E+02 0.20412764646E+02 0.22550772170E+02
 0.23464794095E+02 0.23218294063E+02 0.22342031440E+02 0.21805455170E+02 0.21325284397E+02
 0.20857562383E+02 0.20306992797E+02 0.19586281041E+02 0.18680379735E+02 0.17786185144E+02
 0.17220966001E+02 0.17220953372E+02 0.17786129053E+02 0.18680214527E+02 0.19585947267E+02
 0.20306593576E+02 0.20857365688E+02 0.21325453368E+02 0.21805831304E+02 0.22342285285E+02
 0.22872768496E+02 0.23218059715E+02 0.22995223265E+02 0.21887183658E+02 0.20031694530E+02
 0.18049057797E+02 0.16765699432E+02 0.16765697746E+02 0.18049074851E+02 0.20031774130E+02
 0.21887356706E+02 0.22995476779E+02 0.23218294063E+02 0.22872805334E+02 0.22342313698E+02
 0.22872468278E+02 0.23217574230E+02 0.22994827326E+02 0.21887110749E+02 0.20031941063E+02
 0.18049386332E+02 0.16765868008E+02 0.16765687323E+02 0.18049050704E+02 0.20031822998E+02
 0.21887347328E+02 0.22995265363E+02 0.23218002629E+02 0.22872745964E+02 0.22342318618E+02
 0.21805834230E+02 0.21325422722E+02 0.20857394901E+02 0.20306687300E+02 0.19585982914E+02
 0.18680135251E+02 0.17786043259E+02 0.17220969097E+02 0.17221013346E+02 0.17786080617E+02
 0.18680039189E+02 0.19585845107E+02 0.20306766391E+02 0.20857801674E+02 0.21325953090E+02
 0.21806168256E+02 0.22872468278E+02 0.23760509798E+02 0.23965582134E+02 0.22933961352E+02
 0.20612710479E+02 0.17631585299E+02 0.15109738507E+02 0.14121373450E+02 0.15109553923E+02
 0.17631349100E+02 0.20612649955E+02 0.22934242436E+02 0.23966141061E+02 0.23761078224E+02
 0.22872787340E+02 0.21824466181E+02 0.20817385901E+02 0.19913443103E+02 0.19081702740E+02
 0.18265338484E+02 0.17452011629E+02 0.16696967956E+02 0.16134214037E+02 0.15923213602E+02
 0.16134171702E+02 0.16696907525E+02 0.17452026920E+02 0.18265543053E+02 0.19082102015E+02
 0.19913896352E+02 0.20817700119E+02 0.21824492206E+02 0.23217574230E+02 0.23965582134E+02
 0.23286066229E+02 0.20833651410E+02 0.17057999833E+02 0.13184720444E+02 0.10726751429E+02
 0.10726783888E+02 0.13184687062E+02 0.17057761562E+02 0.20833409567E+02 0.23286202704E+02
 0.23966156246E+02 0.23218187356E+02 0.21826837527E+02 0.20359897963E+02 0.19004366875E+02
 0.17814263810E+02 0.16770473395E+02 0.15845621021E+02 0.15052265261E+02 0.14451424598E+02
 0.14123208827E+02 0.14123091519E+02 0.14451239857E+02 0.15052274631E+02 0.15845838577E+02
 0.16770731623E+02 0.17814499695E+02 0.19004613012E+02 0.20360026562E+02 0.21826593495E+02
 0.22994827326E+02 0.22933961352E+02 0.20833651410E+02 0.16802714320E+02 0.11913314469E+02
 0.78878746062E+01 0.63283823241E+01 0.78880048688E+01 0.11913267046E+02 0.16802333138E+02
 0.20833232307E+02 0.22933949745E+02 0.22995276071E+02 0.21680444333E+02 0.19915224551E+02
 0.18185405744E+02 0.16641436896E+02 0.15324450715E+02 0.14222444868E+02 0.13322821826E+02
 0.12639008903E+02 0.12205547831E+02 0.12056394788E+02 0.12205404271E+02 0.12638928153E+02
 0.13322898578E+02 0.14222570620E+02 0.15324554994E+02 0.16641565696E+02 0.18185489784E+02
 0.19915033374E+02 0.21679940897E+02 0.21887110749E+02 0.20612710479E+02 0.17057999833E+02
 0.11913314469E+02 0.67838167011E+01 0.35735521251E+01 0.35736517928E+01 0.67839512724E+01
 0.11913198084E+02 0.17057593451E+02 0.20612306077E+02 0.21887034189E+02 0.21177949862E+02
 0.19399033720E+02 0.17436120123E+02 0.15611121383E+02 0.14035538179E+02 0.12734715505E+02
 0.11697141385E+02 0.10911506570E+02 0.10379498765E+02 0.10110085410E+02 0.10110097238E+02
 0.10379515276E+02 0.10911506854E+02 0.11697155875E+02 0.12734797896E+02 0.14035665246E+02
 0.15611151251E+02 0.17435914674E+02 0.19398649570E+02 0.21177664713E+02 0.20031941063E+02
 0.17631585299E+02 0.13184720444E+02 0.78878746062E+01 0.35735521251E+01 0.19107355844E+01
 0.35737619885E+01 0.78880024071E+01 0.13184533237E+02 0.17631183114E+02 0.20031638075E+02
 0.20187397091E+02 0.18745729414E+02 0.16713360088E+02 0.14715525608E+02 0.12939404882E+02
 0.11457031036E+02 0.10276320409E+02 0.93803075158E+01 0.87513582063E+01 0.83781621421E+01
 0.82544828516E+01 0.83781887103E+01 0.87514058483E+01 0.93803688052E+01 0.10276389699E+02
 0.11457094057E+02 0.12939416763E+02 0.14715421076E+02 0.16713133637E+02 0.18745514105E+02
 0.20187403481E+02 0.18049386332E+02 0.15109738507E+02 0.10726751429E+02 0.63283823241E+01
 0.35736517928E+01 0.35737619885E+01 0.63285553502E+01 0.10726710938E+02 0.15109431859E+02
 0.18049041190E+02 0.18908535747E+02 0.17945826912E+02 0.16009626141E+02 0.13937639195E+02
 0.12032726818E+02 0.10408990063E+02 0.91013291478E+01 0.80999172506E+01 0.73793484787E+01
 0.69147716934E+01 0.66875602151E+01 0.66875511666E+01 0.69147769780E+01 0.73794044095E+01
 0.80999884968E+01 0.91013516452E+01 0.10408954092E+02 0.12032658079E+02 0.13937532990E+02
 0.16009486176E+02 0.17945757001E+02 0.18908681332E+02 0.16765868008E+02 0.14121373450E+02
 0.10726783888E+02 0.78880048688E+01 0.67839512724E+01 0.78880024071E+01 0.10726710938E+02
 0.14121207286E+02 0.16765678791E+02 0.17811425439E+02 0.17161638736E+02 0.15380019567E+02
 0.13286609258E+02 0.11307678528E+02 0.95838339517E+01 0.81740302709E+01 0.70810220650E+01
 0.62791121330E+01 0.57355091416E+01 0.54219208458E+01 0.53195934159E+01 0.54219257111E+01
 0.57355140170E+01 0.62791252916E+01 0.70810473277E+01 0.81740356826E+01 0.95837785367E+01
 0.11307570608E+02 0.13286504715E+02 0.15379970025E+02 0.17161671804E+02 0.17811551955E+02
 0.16765687323E+02 0.15109553923E+02 0.13184687062E+02 0.11913267046E+02 0.11913198084E+02
 0.13184533237E+02 0.15109431859E+02 0.16765678791E+02 0.17378119698E+02 0.16666670674E+02
 0.14924361825E+02 0.12803899863E+02 0.10769393476E+02 0.89708141947E+01 0.74793762571E+01
 0.63088817261E+01 0.54368561152E+01 0.48263570146E+01 0.44415998364E+01 0.42561217952E+01
 0.42561139263E+01 0.44415905780E+01 0.48263713081E+01 0.54368949740E+01 0.63089117995E+01
 0.74793681530E+01 0.89707832210E+01 0.10769378884E+02 0.12803901266E+02 0.14924330844E+02
 0.16666583866E+02 0.17378035225E+02 0.18049050704E+02 0.17631349100E+02 0.17057761562E+02
 0.16802333138E+02 0.17057593451E+02 0.17631183114E+02 0.18049041190E+02 0.17811425439E+02
 0.16666670674E+02 0.14755610376E+02 0.12543995943E+02 0.10434844857E+02 0.85637031466E+01
 0.69991455444E+01 0.57594424882E+01 0.48249143673E+01 0.41564788821E+01 0.37125991071E+01
 0.34599877662E+01 0.33780766006E+01 0.34599966350E+01 0.37126085725E+01 0.41564784449E+01
 0.48249076294E+01 0.57594537639E+01 0.69991965590E+01 0.85637824188E+01 0.10434907939E+02
 0.12543989929E+02 0.14755504754E+02 0.16666493451E+02 0.17811281649E+02 0.20031822998E+02
 0.20612649955E+02 0.20833409567E+02 0.20833232307E+02 0.20612306077E+02 0.20031638075E+02
 0.18908535747E+02 0.17161638736E+02 0.14924361825E+02 0.12543995943E+02 0.10321129250E+02
 0.83606171262E+01 0.67181003833E+01 0.54087996471E+01 0.44132540621E+01 0.36907158271E+01
 0.31949557918E+01 0.28865702794E+01 0.27389044493E+01 0.27389407849E+01 0.28866050798E+01
 0.31948955623E+01 0.36906143271E+01 0.44132354696E+01 0.54088628153E+01 0.67181332339E+01
 0.83605897916E+01 0.10321135169E+02 0.12544066540E+02 0.14924383578E+02 0.17161547334E+02
 0.18908484345E+02 0.21887347328E+02 0.22934242436E+02 0.23286202704E+02 0.22933949745E+02
 0.21887034189E+02 0.20187397091E+02 0.17945826912E+02 0.15380019567E+02 0.12803899863E+02
 0.10434844857E+02 0.83606171262E+01 0.66258049443E+01 0.52386999030E+01 0.41770425525E+01
 0.33981306828E+01 0.28520644217E+01 0.24939697217E+01 0.22913525994E+01 0.22257617943E+01
 0.22913532083E+01 0.24939332357E+01 0.28520002978E+01 0.33980967095E+01 0.41770413258E+01
 0.52386591093E+01 0.66257066598E+01 0.83605676782E+01 0.10434935920E+02 0.12804056461E+02
 0.15380094784E+02 0.17945837061E+02 0.20187522746E+02 0.22995265363E+02 0.23966141061E+02
 0.23966156246E+02 0.22995276071E+02 0.21177949862E+02 0.18745729414E+02 0.16009626141E+02
 0.13286609258E+02 0.10769393476E+02 0.85637031466E+01 0.67181003833E+01 0.52386999030E+01
 0.41002466419E+01 0.32573291307E+01 0.26568001434E+01 0.22493080982E+01 0.19970365323E+01
 0.18762970886E+01 0.18762675309E+01 0.19969946528E+01 0.22493195153E+01 0.26568445035E+01
 0.32573307003E+01 0.41001914632E+01 0.52386560733E+01 0.67181161065E+01 0.85637458304E+01
 0.10769415304E+02 0.13286626400E+02 0.16009680213E+02 0.18745807152E+02 0.21177992578E+02
 0.23218002629E+02 0.23761078224E+02 0.23218187356E+02 0.21680444333E+02 0.19399033720E+02
 0.16713360088E+02 0.13937639195E+02 0.11307678528E+02 0.89708141947E+01 0.69991455444E+01
 0.54087996471E+01 0.41770425525E+01 0.32573291307E+01 0.25934589162E+01 0.21318434377E+01
 0.18297980040E+01 0.16587501151E+01 0.16033010305E+01 0.16587440214E+01 0.18298125993E+01
 0.21318859805E+01 0.25935022039E+01 0.32573539567E+01 0.41770644770E+01 0.54088316590E+01
 0.69991606877E+01 0.89707846071E+01 0.11307631941E+02 0.13937624410E+02 0.16713351131E+02
 0.19398935393E+02 0.21680236048E+02 0.22872745964E+02 0.22872787340E+02 0.21826837527E+02
 0.19915224551E+02 0.17436120123E+02 0.14715525608E+02 0.12032726818E+02 0.95838339517E+01
 0.74793762571E+01 0.57594424882E+01 0.44132540621E+01 0.33981306828E+01 0.26568001434E+01
 0.21318434377E+01 0.17755338197E+01 0.15542015235E+01 0.14479445376E+01 0.14479546678E+01
 0.15542265476E+01 0.17755650418E+01 0.21318772912E+01 0.26568321162E+01 0.33981437596E+01
 0.44132283769E+01 0.57593832054E+01 0.74793220180E+01 0.95838240330E+01 0.12032755778E+02
 0.14715542917E+02 0.17436079654E+02 0.19915129452E+02 0.21826739223E+02 0.22342318618E+02
 0.21824466181E+02 0.20359897963E+02 0.18185405744E+02 0.15611121383E+02 0.12939404882E+02
 0.10408990063E+02 0.81740302709E+01 0.63088817261E+01 0.48249143673E+01 0.36907158271E+01
 0.28520644217E+01 0.22493080982E+01 0.18297980040E+01 0.15542015235E+01 0.13974575523E+01
 0.13465164842E+01 0.13974631010E+01 0.15542310429E+01 0.18298422721E+01 0.22493222549E+01
 0.28520231934E+01 0.36906496105E+01 0.48248660357E+01 0.63088525404E+01 0.81740013395E+01
 0.10408982651E+02 0.12939467163E+02 0.15611245982E+02 0.18185511106E+02 0.20359921478E+02
 0.21824441613E+02 0.21805834230E+02 0.20817385901E+02 0.19004366875E+02 0.16641436896E+02
 0.14035538179E+02 0.11457031036E+02 0.91013291478E+01 0.70810220650E+01 0.54368561152E+01
 0.41564788821E+01 0.31949557918E+01 0.24939697217E+01 0.19970365323E+01 0.16587501151E+01
 0.14479445376E+01 0.13465164842E+01 0.13465134286E+01 0.14479358173E+01 0.16587393470E+01
 0.19970318884E+01 0.24939771947E+01 0.31949732288E+01 0.41564994329E+01 0.54368756506E+01
 0.70810397647E+01 0.91013433373E+01 0.11457042505E+02 0.14035555772E+02 0.16641472212E+02
 0.19004419713E+02 0.20817436646E+02 0.21805855431E+02 0.21325422722E+02 0.19913443103E+02
 0.17814263810E+02 0.15324450715E+02 0.12734715505E+02 0.10276320409E+02 0.80999172506E+01
 0.62791121330E+01 0.48263570146E+01 0.37125991071E+01 0.28865702794E+01 0.22913525994E+01
 0.18762970886E+01 0.16033010305E+01 0.14479546678E+01 0.13974631010E+01 0.14479358173E+01
 0.16032431581E+01 0.18762286679E+01 0.22913488859E+01 0.28866529910E+01 0.37126935435E+01
 0.48263958849E+01 0.62791318465E+01 0.80999837381E+01 0.10276391591E+02 0.12734679629E+02
 0.15324314034E+02 0.17814188142E+02 0.19913533644E+02 0.21325563328E+02 0.21824427636E+02
 0.20857394901E+02 0.19081702740E+02 0.16770473395E+02 0.14222444868E+02 0.11697141385E+02
 0.93803075158E+01 0.73793484787E+01 0.57355091416E+01 0.44415998364E+01 0.34599877662E+01
 0.27389044493E+01 0.22257617943E+01 0.18762675309E+01 0.16587440214E+01 0.15542265476E+01
 0.15542310429E+01 0.16587393470E+01 0.18762286679E+01 0.22257004574E+01 0.27388626791E+01
 0.34599900709E+01 0.44416297523E+01 0.57355349905E+01 0.73793566078E+01 0.93803053445E+01
 0.11697143503E+02 0.14222467962E+02 0.16770533039E+02 0.19081796816E+02 0.20857487953E+02