       N       E                     dE             d eps       ncg     rms          rms(c)
DAV:   1    -0.250567068252E+01   -0.25057E+01   -0.19827E+03   928   0.422E+02
DAV:   2    -0.117155359404E+02   -0.92099E+01   -0.88991E+01  1432   0.551E+01
DAV:   3    -0.118194678938E+02   -0.10393E+00   -0.10393E+00  1160   0.714E+00
DAV:   4    -0.118198388133E+02   -0.37092E-03   -0.37092E-03  1424   0.467E-01
DAV:   5    -0.118198389901E+02   -0.17680E-06   -0.17679E-06  1176   0.966E-03    0.268E+00
DAV:   6    -0.117014659716E+02    0.11837E+00   -0.66122E-02  1056   0.125E+00    0.158E+00
DAV:   7    -0.116406587697E+02    0.60807E-01   -0.13152E-01  1064   0.182E+00    0.126E-01
DAV:   8    -0.116408802155E+02   -0.22145E-03   -0.36469E-03   944   0.428E-01    0.254E-02
DAV:   9    -0.116408584643E+02    0.21751E-04   -0.11962E-04   968   0.691E-02
   1 F= -.11640858E+02 E0= -.11640858E+02  d E =-.118027E-08
