fcc Si                                  
   4.00000000000000     
     0.445088    0.445088    0.000000
     0.000000    0.445088    0.445088
     0.445088    0.000000    0.445088
   Si
     1
Direct
  0.000000  0.000000  0.000000
 
   20   20   20
 -.20750057561E+01 -.15296629871E+01 -.84147403333E-01 0.17760824004E+01 0.34843390393E+01
 0.46247640644E+01 0.50708826451E+01 0.49794453528E+01 0.46683439547E+01 0.44157681110E+01
 0.43222222228E+01 0.44157681110E+01 0.46683439547E+01 0.49794453528E+01 0.50708826451E+01
 0.46247640644E+01 0.34843390393E+01 0.17760824004E+01 -.84147403333E-01 -.15296629871E+01
 -.15296629871E+01 -.53583997785E+00 0.11053459083E+01 0.28577365679E+01 0.42267948699E+01
 0.49488937045E+01 0.50544883864E+01 0.47967520327E+01 0.44936642171E+01 0.43152220251E+01
 0.43151918187E+01 0.44936289206E+01 0.47967746031E+01 0.50545306165E+01 0.49489061441E+01
 0.42268165166E+01 0.28578073810E+01 0.11054105434E+01 -.53583561584E+00 -.15296762239E+01
 -.84147403333E-01 0.11053459083E+01 0.26130684417E+01 0.39571113714E+01 0.47964826337E+01
 0.50466217725E+01 0.48660303651E+01 0.45423506388E+01 0.42968500642E+01 0.42069265259E+01
 0.42968207223E+01 0.45423449819E+01 0.48660834069E+01 0.50466938444E+01 0.47965094058E+01
 0.39571138483E+01 0.26131551174E+01 0.11055539837E+01 -.83954750077E-01 -.53583561584E+00
 0.17760824004E+01 0.28577365679E+01 0.39571113714E+01 0.47292801126E+01 0.50175940069E+01
 0.48889527720E+01 0.45655901242E+01 0.42741890835E+01 0.41087394386E+01 0.41087314440E+01
 0.42741788251E+01 0.45656173122E+01 0.48890366854E+01 0.50176758908E+01 0.47292946539E+01
 0.39571280542E+01 0.28578999768E+01 0.17763596858E+01 0.11055539837E+01 0.11054105434E+01
 0.34843390393E+01 0.42267948699E+01 0.47964826337E+01 0.50175940069E+01 0.48922146453E+01
 0.45731561556E+01 0.42559133530E+01 0.40357256540E+01 0.39571369227E+01 0.40356907193E+01
 0.42559104966E+01 0.45732250288E+01 0.48923116648E+01 0.50176512189E+01 0.47965019583E+01
 0.42268410569E+01 0.34844397359E+01 0.28578999768E+01 0.26131551174E+01 0.28578073810E+01
 0.46247640644E+01 0.49488937045E+01 0.50466217725E+01 0.48889527720E+01 0.45731561556E+01
 0.42489266171E+01 0.39972052135E+01 0.38604585355E+01 0.38604406037E+01 0.39971787568E+01
 0.42489395815E+01 0.45732151224E+01 0.48890162301E+01 0.50466507349E+01 0.49488960371E+01
 0.46247737495E+01 0.42268410569E+01 0.39571280542E+01 0.39571138483E+01 0.42268165166E+01
 0.50708826451E+01 0.50544883864E+01 0.48660303651E+01 0.45655901242E+01 0.42559133530E+01
 0.39972052135E+01 0.38274404156E+01 0.37685230581E+01 0.38274385268E+01 0.39971933334E+01
 0.42559043504E+01 0.45656084296E+01 0.48660730536E+01 0.50545222088E+01 0.50708871622E+01
 0.49488960371E+01 0.47965019583E+01 0.47292946539E+01 0.47965094058E+01 0.49489061441E+01
 0.49794453528E+01 0.47967520327E+01 0.45423506388E+01 0.42741890835E+01 0.40357256540E+01
 0.38604585355E+01 0.37685230581E+01 0.37685196569E+01 0.38604490327E+01 0.40357119102E+01
 0.42741838374E+01 0.45423707633E+01 0.47967960286E+01 0.49794816503E+01 0.50545222088E+01
 0.50466507349E+01 0.50176512189E+01 0.50176758908E+01 0.50466938444E+01 0.50545306165E+01
 0.46683439547E+01 0.44936642171E+01 0.42968500642E+01 0.41087394386E+01 0.39571369227E+01
 0.38604406037E+01 0.38274385268E+01 0.38604490327E+01 0.39571373083E+01 0.41087270336E+01
 0.42968441612E+01 0.44936862795E+01 0.46683820834E+01 0.47967960286E+01 0.48660730536E+01
 0.48890162301E+01 0.48923116648E+01 0.48890366854E+01 0.48660834069E+01 0.47967746031E+01
 0.44157681110E+01 0.43152220251E+01 0.42069265259E+01 0.41087314440E+01 0.40356907193E+01
 0.39971787568E+01 0.39971933334E+01 0.40357119102E+01 0.41087270336E+01 0.42069054210E+01
 0.43152253428E+01 0.44158141103E+01 0.44936862795E+01 0.45423707633E+01 0.45656084296E+01
 0.45732151224E+01 0.45732250288E+01 0.45656173122E+01 0.45423449819E+01 0.44936289206E+01
 0.43222222228E+01 0.43151918187E+01 0.42968207223E+01 0.42741788251E+01 0.42559104966E+01
 0.42489395815E+01 0.42559043504E+01 0.42741838374E+01 0.42968441612E+01 0.43152253428E+01
 0.43222571272E+01 0.43152253428E+01 0.42968441612E+01 0.42741838374E+01 0.42559043504E+01
 0.42489395815E+01 0.42559104966E+01 0.42741788251E+01 0.42968207223E+01 0.43151918187E+01
 0.44157681110E+01 0.44936289206E+01 0.45423449819E+01 0.45656173122E+01 0.45732250288E+01
 0.45732151224E+01 0.45656084296E+01 0.45423707633E+01 0.44936862795E+01 0.44158141103E+01
 0.43152253428E+01 0.42069054210E+01 0.41087270336E+01 0.40357119102E+01 0.39971933334E+01
 0.39971787568E+01 0.40356907193E+01 0.41087314440E+01 0.42069265259E+01 0.43152220251E+01
 0.46683439547E+01 0.47967746031E+01 0.48660834069E+01 0.48890366854E+01 0.48923116648E+01
 0.48890162301E+01 0.48660730536E+01 0.47967960286E+01 0.46683820834E+01 0.44936862795E+01
 0.42968441612E+01 0.41087270336E+01 0.39571373083E+01 0.38604490327E+01 0.38274385268E+01
 0.38604406037E+01 0.39571369227E+01 0.41087394386E+01 0.42968500642E+01 0.44936642171E+01
 0.49794453528E+01 0.50545306165E+01 0.50466938444E+01 0.50176758908E+01 0.50176512189E+01
 0.50466507349E+01 0.50545222088E+01 0.49794816503E+01 0.47967960286E+01 0.45423707633E+01
 0.42741838374E+01 0.40357119102E+01 0.38604490327E+01 0.37685196569E+01 0.37685230581E+01
 0.38604585355E+01 0.40357256540E+01 0.42741890835E+01 0.45423506388E+01 0.47967520327E+01
 0.50708826451E+01 0.49489061441E+01 0.47965094058E+01 0.47292946539E+01 0.47965019583E+01
 0.49488960371E+01 0.50708871622E+01 0.50545222088E+01 0.48660730536E+01 0.45656084296E+01
 0.42559043504E+01 0.39971933334E+01 0.38274385268E+01 0.37685230581E+01 0.38274404156E+01
 0.39972052135E+01 0.42559133530E+01 0.45655901242E+01 0.48660303651E+01 0.50544883864E+01
 0.46247640644E+01 0.42268165166E+01 0.39571138483E+01 0.39571280542E+01 0.42268410569E+01
 0.46247737495E+01 0.49488960371E+01 0.50466507349E+01 0.48890162301E+01 0.45732151224E+01
 0.42489395815E+01 0.39971787568E+01 0.38604406037E+01 0.38604585355E+01 0.39972052135E+01
 0.42489266171E+01 0.45731561556E+01 0.48889527720E+01 0.50466217725E+01 0.49488937045E+01
 0.34843390393E+01 0.28578073810E+01 0.26131551174E+01 0.28578999768E+01 0.34844397359E+01
 0.42268410569E+01 0.47965019583E+01 0.50176512189E+01 0.48923116648E+01 0.45732250288E+01
 0.42559104966E+01 0.40356907193E+01 0.39571369227E+01 0.40357256540E+01 0.42559133530E+01
 0.45731561556E+01 0.48922146453E+01 0.50175940069E+01 0.47964826337E+01 0.42267948699E+01
 0.17760824004E+01 0.11054105434E+01 0.11055539837E+01 0.17763596858E+01 0.28578999768E+01
 0.39571280542E+01 0.47292946539E+01 0.50176758908E+01 0.48890366854E+01 0.45656173122E+01
 0.42741788251E+01 0.41087314440E+01 0.41087394386E+01 0.42741890835E+01 0.45655901242E+01
 0.48889527720E+01 0.50175940069E+01 0.47292801126E+01 0.39571113714E+01 0.28577365679E+01
 -.84147403333E-01 -.53583561584E+00 -.83954750077E-01 0.11055539837E+01 0.26131551174E+01
 0.39571138483E+01 0.47965094058E+01 0.50466938444E+01 0.48660834069E+01 0.45423449819E+01
 0.42968207223E+01 0.42069265259E+01 0.42968500642E+01 0.45423506388E+01 0.48660303651E+01
 0.50466217725E+01 0.47964826337E+01 0.39571113714E+01 0.26130684417E+01 0.11053459083E+01
 -.15296629871E+01 -.15296762239E+01 -.53583561584E+00 0.11054105434E+01 0.28578073810E+01
 0.42268165166E+01 0.49489061441E+01 0.50545306165E+01 0.47967746031E+01 0.44936289206E+01
 0.43151918187E+01 0.43152220251E+01 0.44936642171E+01 0.47967520327E+01 0.50544883864E+01
 0.49488937045E+01 0.42267948699E+01 0.28577365679E+01 0.11053459083E+01 -.53583997785E+00
 -.15298940553E+01 -.53569082332E+00 0.11057123146E+01 0.28579969333E+01 0.42268172066E+01
 0.49488580503E+01 0.50545882909E+01 0.47969113194E+01 0.44936968146E+01 0.43151514886E+01
 0.43151981205E+01 0.44937345687E+01 0.47968129129E+01 0.50544347968E+01 0.49488208640E+01
 0.42268567064E+01 0.28578584149E+01 0.11052586152E+01 -.53624274167E+00 -.15301435131E+01
 -.53569082332E+00 0.73895137807E+00 0.23626273436E+01 0.38251043146E+01 0.47611811085E+01
 0.50733279867E+01 0.49201077715E+01 0.45995114281E+01 0.43514604766E+01 0.42602687181E+01
 0.43514496014E+01 0.45994556922E+01 0.49200046460E+01 0.50732500890E+01 0.47611837876E+01
 0.38250718398E+01 0.23623326094E+01 0.73837517188E+00 -.53618721605E+00 -.10189750838E+01
 0.11057123146E+01 0.23626273436E+01 0.36640287274E+01 0.46180317734E+01 0.50357034661E+01
 0.49741411031E+01 0.46665406237E+01 0.43706533689E+01 0.42009461044E+01 0.42009678970E+01
 0.43706613343E+01 0.46664684653E+01 0.49740496592E+01 0.50357038691E+01 0.46180890871E+01
 0.36639524581E+01 0.23623076135E+01 0.11053044454E+01 0.33264153585E+00 0.33282974224E+00
 0.28579969333E+01 0.38251043146E+01 0.46180317734E+01 0.50126545791E+01 0.49875787126E+01
 0.46997701845E+01 0.43773226783E+01 0.41490769962E+01 0.40670439607E+01 0.41491747876E+01
 0.43773479869E+01 0.46996816729E+01 0.49875338293E+01 0.50127361782E+01 0.46181077507E+01
 0.38250303239E+01 0.28578138478E+01 0.20640039798E+01 0.17574690632E+01 0.20641463623E+01
 0.42268172066E+01 0.47611811085E+01 0.50357034661E+01 0.49875787126E+01 0.47089802445E+01
 0.43782541140E+01 0.41143486686E+01 0.39690956972E+01 0.39691351847E+01 0.41144132344E+01
 0.43782608890E+01 0.47089363281E+01 0.49875633747E+01 0.50357502456E+01 0.47612367510E+01
 0.42268185381E+01 0.36395540937E+01 0.32575237734E+01 0.32575496028E+01 0.36395977299E+01
 0.49488580503E+01 0.50733279867E+01 0.49741411031E+01 0.46997701845E+01 0.43782541140E+01
 0.41022085541E+01 0.39180987281E+01 0.38536852475E+01 0.39181174679E+01 0.41022319178E+01
 0.43782538497E+01 0.46997350786E+01 0.49741066220E+01 0.50733340719E+01 0.49488946601E+01
 0.46707150248E+01 0.43959141695E+01 0.42823578473E+01 0.43959135349E+01 0.46706912447E+01
 0.50545882909E+01 0.49201077715E+01 0.46665406237E+01 0.43773226783E+01 0.41143486686E+01
 0.39180987281E+01 0.38141687467E+01 0.38141757665E+01 0.39181198349E+01 0.41143777575E+01
 0.43773389948E+01 0.46665124545E+01 0.49200329919E+01 0.50545165170E+01 0.50457654463E+01
 0.49495497216E+01 0.48640962695E+01 0.48640666919E+01 0.49495038410E+01 0.50457756213E+01
 0.47969113194E+01 0.45995114281E+01 0.43706533689E+01 0.41490769962E+01 0.39690956972E+01
 0.38536852475E+01 0.38141757665E+01 0.38537061104E+01 0.39691485338E+01 0.41491402006E+01
 0.43706675998E+01 0.45994388545E+01 0.47967921464E+01 0.49215678173E+01 0.49621189052E+01
 0.49528582225E+01 0.49423387607E+01 0.49528219443E+01 0.49621153786E+01 0.49216449422E+01
 0.44936968146E+01 0.43514604766E+01 0.42009461044E+01 0.40670439607E+01 0.39691351847E+01
 0.39181174679E+01 0.39181198349E+01 0.39691485338E+01 0.40670745004E+01 0.42009795151E+01
 0.43514721447E+01 0.44936757171E+01 0.46052088223E+01 0.46750263143E+01 0.47053055102E+01
 0.47120445274E+01 0.47120634848E+01 0.47053540330E+01 0.46750848724E+01 0.46052567275E+01
 0.43151514886E+01 0.42602687181E+01 0.42009678970E+01 0.41491747876E+01 0.41144132344E+01
 0.41022319178E+01 0.41143777575E+01 0.41491402006E+01 0.42009795151E+01 0.42603350661E+01
 0.43152258402E+01 0.43550338301E+01 0.43748529677E+01 0.43777256162E+01 0.43728037319E+01
 0.43698024555E+01 0.43728483903E+01 0.43777907478E+01 0.43748926360E+01 0.43550101189E+01
 0.43151981205E+01 0.43514496014E+01 0.43706613343E+01 0.43773479869E+01 0.43782608890E+01
 0.43782538497E+01 0.43773389948E+01 0.43706675998E+01 0.43514721447E+01 0.43152258402E+01
 0.42627381278E+01 0.42007391643E+01 0.41399420029E+01 0.40917590269E+01 0.40652441492E+01
 0.40652519531E+01 0.40917725380E+01 0.41399451332E+01 0.42007264770E+01 0.42627146227E+01
 0.44937345687E+01 0.45994556922E+01 0.46664684653E+01 0.46996816729E+01 0.47089363281E+01
 0.46997350786E+01 0.46665124545E+01 0.45994388545E+01 0.44936757171E+01 0.43550338301E+01
 0.42007391643E+01 0.40537236664E+01 0.39351106634E+01 0.38592948099E+01 0.38333861443E+01
 0.38593056597E+01 0.39351005656E+01 0.40536878988E+01 0.42007226345E+01 0.43550706826E+01
 0.47968129129E+01 0.49200046460E+01 0.49740496592E+01 0.49875338293E+01 0.49875633747E+01
 0.49741066220E+01 0.49200329919E+01 0.47967921464E+01 0.46052088223E+01 0.43748529677E+01
 0.41399420029E+01 0.39351106634E+01 0.37866837384E+01 0.37095558590E+01 0.37095566396E+01
 0.37866856505E+01 0.39351144907E+01 0.41399560370E+01 0.43748848038E+01 0.46052510151E+01
 0.50544347968E+01 0.50732500890E+01 0.50357038691E+01 0.50127361782E+01 0.50357502456E+01
 0.50733340719E+01 0.50545165170E+01 0.49215678173E+01 0.46750263143E+01 0.43777256162E+01
 0.40917590269E+01 0.38592948099E+01 0.37095558590E+01 0.36580848586E+01 0.37095374151E+01
 0.38592912573E+01 0.40918017135E+01 0.43778000327E+01 0.46750757839E+01 0.49215440537E+01
 0.49488208640E+01 0.47611837876E+01 0.46180890871E+01 0.46181077507E+01 0.47612367510E+01
 0.49488946601E+01 0.50457654463E+01 0.49621189052E+01 0.47053055102E+01 0.43728037319E+01
 0.40652441492E+01 0.38333861443E+01 0.37095566396E+01 0.37095374151E+01 0.38333639504E+01
 0.40652709948E+01 0.43728715478E+01 0.47053524562E+01 0.49621025136E+01 0.50457006131E+01
 0.42268567064E+01 0.38250718398E+01 0.36639524581E+01 0.38250303239E+01 0.42268185381E+01
 0.46707150248E+01 0.49495497216E+01 0.49528582225E+01 0.47120445274E+01 0.43698024555E+01
 0.40652519531E+01 0.38593056597E+01 0.37866856505E+01 0.38592912573E+01 0.40652709948E+01
 0.43698568476E+01 0.47120692131E+01 0.49528156239E+01 0.49494875369E+01 0.46706998613E+01
 0.28578584149E+01 0.23623326094E+01 0.23623076135E+01 0.28578138478E+01 0.36395540937E+01
 0.43959141695E+01 0.48640962695E+01 0.49423387607E+01 0.47120634848E+01 0.43728483903E+01
 0.40917725380E+01 0.39351005656E+01 0.39351144907E+01 0.40918017135E+01 0.43728715478E+01
 0.47120692131E+01 0.49423242059E+01 0.48640656991E+01 0.43958913430E+01 0.36395690327E+01
 0.11052586152E+01 0.73837517188E+00 0.11053044454E+01 0.20640039798E+01 0.32575237734E+01
 0.42823578473E+01 0.48640666919E+01 0.49528219443E+01 0.47053540330E+01 0.43777907478E+01
 0.41399451332E+01 0.40536878988E+01 0.41399560370E+01 0.43778000327E+01 0.47053524562E+01
 0.49528156239E+01 0.48640656991E+01 0.42823554563E+01 0.32574985742E+01 0.20639515015E+01
 -.53624274167E+00 -.53618721605E+00 0.33264153585E+00 0.17574690632E+01 0.32575496028E+01
 0.43959135349E+01 0.49495038410E+01 0.49621153786E+01 0.46750848724E+01 0.43748926360E+01
 0.42007264770E+01 0.42007226345E+01 0.43748848038E+01 0.46750757839E+01 0.49621025136E+01
 0.49494875369E+01 0.43958913430E+01 0.32574985742E+01 0.17573669577E+01 0.33252127914E+00
 -.15301435131E+01 -.10189750838E+01 0.33282974224E+00 0.20641463623E+01 0.36395977299E+01
 0.46706912447E+01 0.50457756213E+01 0.49216449422E+01 0.46052567275E+01 0.43550101189E+01
 0.42627146227E+01 0.43550706826E+01 0.46052510151E+01 0.49215440537E+01 0.50457006131E+01
 0.46706998613E+01 0.36395690327E+01 0.20639515015E+01 0.33252127914E+00 -.10192060195E+01
 -.84501441725E-01 0.11052279087E+01 0.26131969909E+01 0.39572866949E+01 0.47965413974E+01
 0.50466179220E+01 0.48660941152E+01 0.45424662453E+01 0.42969036175E+01 0.42069098289E+01
 0.42968353860E+01 0.45424216245E+01 0.48661369602E+01 0.50466734606E+01 0.47964786751E+01
 0.39571451008E+01 0.26132138812E+01 0.11055188514E+01 -.84181672298E-01 -.53622047211E+00
 0.11052279087E+01 0.23624332967E+01 0.36641625992E+01 0.46182178247E+01 0.50357228987E+01
 0.49740810815E+01 0.46665854400E+01 0.43707852887E+01 0.42010123434E+01 0.42009439598E+01
 0.43706676361E+01 0.46665584441E+01 0.49741362593E+01 0.50357089968E+01 0.46180588952E+01
 0.36639897088E+01 0.23624289416E+01 0.11053748775E+01 0.33246694456E+00 0.33237638821E+00
 0.26131969909E+01 0.36641625992E+01 0.45409897555E+01 0.50016478026E+01 0.50159755186E+01
 0.47422368318E+01 0.44190429732E+01 0.41883293847E+01 0.41050581670E+01 0.41882491810E+01
 0.44189773688E+01 0.47422430401E+01 0.50159914664E+01 0.50015759823E+01 0.45408326216E+01
 0.36640248087E+01 0.26131576542E+01 0.17572131123E+01 0.14276293658E+01 0.17571923664E+01
 0.39572866949E+01 0.46182178247E+01 0.50016478026E+01 0.50246334827E+01 0.47752978029E+01
 0.44446090151E+01 0.41753840054E+01 0.40260587710E+01 0.40260579985E+01 0.41753685319E+01
 0.44445773074E+01 0.47752806537E+01 0.50246207580E+01 0.50015781006E+01 0.46180918344E+01
 0.39571999824E+01 0.32574458931E+01 0.28089954821E+01 0.28089735103E+01 0.32574417634E+01
 0.47965413974E+01 0.50357228987E+01 0.50159755186E+01 0.47752978029E+01 0.44523857578E+01
 0.41675728374E+01 0.39753162944E+01 0.39076448228E+01 0.39753100674E+01 0.41675401382E+01
 0.44523327678E+01 0.47752589591E+01 0.50159613518E+01 0.50357055094E+01 0.47965039701E+01
 0.43959033897E+01 0.40270371405E+01 0.38781700593E+01 0.40270612452E+01 0.43959452812E+01
 0.50466179220E+01 0.49740810815E+01 0.47422368318E+01 0.44446090151E+01 0.41675728374E+01
 0.39580217300E+01 0.38461045810E+01 0.38460832237E+01 0.39579735958E+01 0.41675196004E+01
 0.44445536027E+01 0.47421927472E+01 0.49740780729E+01 0.50466448371E+01 0.49495324131E+01
 0.47666293815E+01 0.46275797598E+01 0.46276079996E+01 0.47666712904E+01 0.49495312908E+01
 0.48660941152E+01 0.46665854400E+01 0.44190429732E+01 0.41753840054E+01 0.39753162944E+01
 0.38461045810E+01 0.38017114383E+01 0.38461270042E+01 0.39753197498E+01 0.41753338040E+01
 0.44189538981E+01 0.46665073068E+01 0.48660691973E+01 0.49620999228E+01 0.49552855393E+01
 0.49028993478E+01 0.48750761940E+01 0.49028668644E+01 0.49552385653E+01 0.49620723216E+01
 0.45424662453E+01 0.43707852887E+01 0.41883293847E+01 0.40260587710E+01 0.39076448228E+01
 0.38460832237E+01 0.38461270042E+01 0.39077230720E+01 0.40260750107E+01 0.41882488128E+01
 0.43706649234E+01 0.45423857731E+01 0.46750204581E+01 0.47491799657E+01 0.47687831777E+01
 0.47645649323E+01 0.47645427046E+01 0.47687308125E+01 0.47491350545E+01 0.46750281342E+01
 0.42969036175E+01 0.42010123434E+01 0.41050581670E+01 0.40260579985E+01 0.39753100674E+01
 0.39579735958E+01 0.39753197498E+01 0.40260750107E+01 0.41050656240E+01 0.42009880466E+01
 0.42968509586E+01 0.43748417052E+01 0.44237028062E+01 0.44439823821E+01 0.44467580751E+01
 0.44455519151E+01 0.44467440931E+01 0.44439722870E+01 0.44237192677E+01 0.43748894721E+01
 0.42069098289E+01 0.42009439598E+01 0.41882491810E+01 0.41753685319E+01 0.41675401382E+01
 0.41675196004E+01 0.41753338040E+01 0.41882488128E+01 0.42009880466E+01 0.42069505059E+01
 0.42007491058E+01 0.41811360778E+01 0.41526069382E+01 0.41243893932E+01 0.41068474067E+01
 0.41068315802E+01 0.41243727842E+01 0.41526323865E+01 0.41811844949E+01 0.42007608801E+01
 0.42968353860E+01 0.43706676361E+01 0.44189773688E+01 0.44445773074E+01 0.44523327678E+01
 0.44445536027E+01 0.44189538981E+01 0.43706649234E+01 0.42968509586E+01 0.42007491058E+01
 0.40926385181E+01 0.39874026202E+01 0.39003095910E+01 0.38433495070E+01 0.38236079569E+01
 0.38433478056E+01 0.39003107442E+01 0.39874053018E+01 0.40926333990E+01 0.42007327788E+01
 0.45424216245E+01 0.46665584441E+01 0.47422430401E+01 0.47752806537E+01 0.47752589591E+01
 0.47421927472E+01 0.46665073068E+01 0.45423857731E+01 0.43748417052E+01 0.41811360778E+01
 0.39874026202E+01 0.38202845959E+01 0.36999072529E+01 0.36375556590E+01 0.36375618865E+01
 0.36999143583E+01 0.38202766752E+01 0.39873869510E+01 0.41811327617E+01 0.43748585720E+01
 0.48661369602E+01 0.49741362593E+01 0.50159914664E+01 0.50246207580E+01 0.50159613518E+01
 0.49740780729E+01 0.48660691973E+01 0.46750204581E+01 0.44237028062E+01 0.41526069382E+01
 0.39003095910E+01 0.36999072529E+01 0.35729022767E+01 0.35296335651E+01 0.35728997315E+01
 0.36999039031E+01 0.39003054258E+01 0.41526054224E+01 0.44237192677E+01 0.46750691795E+01
 0.50466734606E+01 0.50357089968E+01 0.50015759823E+01 0.50015781006E+01 0.50357055094E+01
 0.50466448371E+01 0.49620999228E+01 0.47491799657E+01 0.44439823821E+01 0.41243893932E+01
 0.38433495070E+01 0.36375556590E+01 0.35296335651E+01 0.35296380306E+01 0.36375559145E+01
 0.38433328610E+01 0.41243721884E+01 0.44439971118E+01 0.47492294384E+01 0.49621529146E+01
 0.47964786751E+01 0.46180588952E+01 0.45408326216E+01 0.46180918344E+01 0.47965039701E+01
 0.49495324131E+01 0.49552855393E+01 0.47687831777E+01 0.44467580751E+01 0.41068474067E+01
 0.38236079569E+01 0.36375618865E+01 0.35728997315E+01 0.36375559145E+01 0.38235928688E+01
 0.41068320344E+01 0.44467657192E+01 0.47688224778E+01 0.49553330460E+01 0.49495486573E+01
 0.39571451008E+01 0.36639897088E+01 0.36640248087E+01 0.39571999824E+01 0.43959033897E+01
 0.47666293815E+01 0.49028993478E+01 0.47645649323E+01 0.44455519151E+01 0.41068315802E+01
 0.38433478056E+01 0.36999143583E+01 0.36999039031E+01 0.38433328610E+01 0.41068320344E+01
 0.44455638413E+01 0.47645871930E+01 0.49029450232E+01 0.47666777937E+01 0.43959016230E+01
 0.26132138812E+01 0.23624289416E+01 0.26131576542E+01 0.32574458931E+01 0.40270371405E+01
 0.46275797598E+01 0.48750761940E+01 0.47645427046E+01 0.44467440931E+01 0.41243727842E+01
 0.39003107442E+01 0.38202766752E+01 0.39003054258E+01 0.41243721884E+01 0.44467657192E+01
 0.47645871930E+01 0.48751170021E+01 0.46275987893E+01 0.40270612452E+01 0.32575016454E+01
 0.11055188514E+01 0.11053748775E+01 0.17572131123E+01 0.28089954821E+01 0.38781700593E+01
 0.46276079996E+01 0.49028668644E+01 0.47687308125E+01 0.44439722870E+01 0.41526323865E+01
 0.39874053018E+01 0.39873869510E+01 0.41526054224E+01 0.44439971118E+01 0.47688224778E+01
 0.49029450232E+01 0.46275987893E+01 0.38781586162E+01 0.28091423597E+01 0.17574862651E+01
 -.84181672298E-01 0.33246694456E+00 0.14276293658E+01 0.28089735103E+01 0.40270612452E+01
 0.47666712904E+01 0.49552385653E+01 0.47491350545E+01 0.44237192677E+01 0.41811844949E+01
 0.40926333990E+01 0.41811327617E+01 0.44237192677E+01 0.47492294384E+01 0.49553330460E+01
 0.47666777937E+01 0.40270612452E+01 0.28091423597E+01 0.14279848372E+01 0.33277540766E+00
 -.53622047211E+00 0.33237638821E+00 0.17571923664E+01 0.32574417634E+01 0.43959452812E+01
 0.49495312908E+01 0.49620723216E+01 0.46750281342E+01 0.43748894721E+01 0.42007608801E+01
 0.42007327788E+01 0.43748585720E+01 0.46750691795E+01 0.49621529146E+01 0.49495486573E+01
 0.43959016230E+01 0.32575016454E+01 0.17574862651E+01 0.33277540766E+00 -.53603119352E+00
 0.17761921956E+01 0.28576560698E+01 0.39569235619E+01 0.47291679652E+01 0.50176189808E+01
 0.48890079118E+01 0.45655739702E+01 0.42741330446E+01 0.41087256401E+01 0.41087616978E+01
 0.42741898311E+01 0.45655865564E+01 0.48890097881E+01 0.50176935898E+01 0.47293339930E+01
 0.39571321807E+01 0.28578601874E+01 0.17763520473E+01 0.11056623939E+01 0.11055994787E+01
 0.28576560698E+01 0.38248234321E+01 0.46179426266E+01 0.50126772612E+01 0.49875760755E+01
 0.46997288544E+01 0.43773167961E+01 0.41491251448E+01 0.40670903567E+01 0.41491854045E+01
 0.43773526911E+01 0.46997196183E+01 0.49875990364E+01 0.50127871199E+01 0.46181221935E+01
 0.38250490105E+01 0.28579046711E+01 0.20641488939E+01 0.17575195302E+01 0.20639681504E+01
 0.39569235619E+01 0.46179426266E+01 0.50016030776E+01 0.50246838106E+01 0.47752699248E+01
 0.44445170132E+01 0.41753450713E+01 0.40260999377E+01 0.40261054387E+01 0.41753723828E+01
 0.44445663014E+01 0.47753082348E+01 0.50246959455E+01 0.50016488545E+01 0.46181075835E+01
 0.39572054114E+01 0.32575559765E+01 0.28092129862E+01 0.28090976347E+01 0.32572792580E+01
 0.47291679652E+01 0.50126772612E+01 0.50246838106E+01 0.47988554950E+01 0.44768845020E+01
 0.41895641876E+01 0.39949117241E+01 0.39262817412E+01 0.39949102013E+01 0.41895951354E+01
 0.44769459800E+01 0.47988931584E+01 0.50246736686E+01 0.50126896598E+01 0.47293015228E+01
 0.42824123732E+01 0.38782789336E+01 0.37161380640E+01 0.38780817012E+01 0.42821712112E+01
 0.50176189808E+01 0.49875760755E+01 0.47752699248E+01 0.44768845020E+01 0.41940337961E+01
 0.39785067736E+01 0.38629050173E+01 0.38628822296E+01 0.39784739935E+01 0.41940516931E+01
 0.44769506049E+01 0.47753131779E+01 0.49875532929E+01 0.50175897726E+01 0.48640969345E+01
 0.46276301290E+01 0.44558732215E+01 0.44558052954E+01 0.46275035214E+01 0.48640396390E+01
 0.48890079118E+01 0.46997288544E+01 0.44445170132E+01 0.41895641876E+01 0.39785067736E+01
 0.38414202167E+01 0.37941287960E+01 0.38413534958E+01 0.39784637537E+01 0.41895945781E+01
 0.44445702591E+01 0.46997390813E+01 0.48889819963E+01 0.49528138505E+01 0.49028658282E+01
 0.48138104951E+01 0.47716411461E+01 0.48137976250E+01 0.49028595247E+01 0.49528322728E+01
 0.45655739702E+01 0.43773167961E+01 0.41753450713E+01 0.39949117241E+01 0.38629050173E+01
 0.37941287960E+01 0.37941097201E+01 0.38628653153E+01 0.39948841360E+01 0.41753467416E+01
 0.43773454025E+01 0.45656112736E+01 0.47053006238E+01 0.47687594146E+01 0.47686450054E+01
 0.47496107785E+01 0.47496373505E+01 0.47686956708E+01 0.47687835436E+01 0.47052833301E+01
 0.42741330446E+01 0.41491251448E+01 0.40260999377E+01 0.39262817412E+01 0.38628822296E+01
 0.38413534958E+01 0.38628653153E+01 0.39262501235E+01 0.40260763773E+01 0.41491392686E+01
 0.42741825357E+01 0.43777271601E+01 0.44439838622E+01 0.44720917449E+01 0.44746025403E+01
 0.44720438238E+01 0.44746372617E+01 0.44721298078E+01 0.44439855011E+01 0.43776842934E+01
 0.41087256401E+01 0.40670903567E+01 0.40261054387E+01 0.39949102013E+01 0.39784739935E+01
 0.39784637537E+01 0.39948841360E+01 0.40260763773E+01 0.40670774393E+01 0.41087452025E+01
 0.41399523953E+01 0.41526184522E+01 0.41465907256E+01 0.41306346042E+01 0.41178699419E+01
 0.41178836064E+01 0.41306531697E+01 0.41465773278E+01 0.41525709307E+01 0.41399039286E+01
 0.41087616978E+01 0.41491854045E+01 0.41753723828E+01 0.41895951354E+01 0.41940516931E+01
 0.41895945781E+01 0.41753467416E+01 0.41491392686E+01 0.41087452025E+01 0.40537541727E+01
 0.39874238721E+01 0.39174489879E+01 0.38548900997E+01 0.38114083627E+01 0.37958365557E+01
 0.38114380855E+01 0.38548976525E+01 0.39173964233E+01 0.39873390686E+01 0.40537045477E+01
 0.42741898311E+01 0.43773526911E+01 0.44445663014E+01 0.44769459800E+01 0.44769506049E+01
 0.44445702591E+01 0.43773454025E+01 0.42741825357E+01 0.41399523953E+01 0.39874238721E+01
 0.38351823949E+01 0.37028573911E+01 0.36064423617E+01 0.35560040410E+01 0.35560073825E+01
 0.36064467786E+01 0.37028503918E+01 0.38351573843E+01 0.39873942957E+01 0.41399404289E+01
 0.45655865564E+01 0.46997196183E+01 0.47753082348E+01 0.47988931584E+01 0.47753131779E+01
 0.46997390813E+01 0.45656112736E+01 0.43777271601E+01 0.41526184522E+01 0.39174489879E+01
 0.37028573911E+01 0.35345261993E+01 0.34286772369E+01 0.33927503254E+01 0.34286558352E+01
 0.35345060595E+01 0.37028644451E+01 0.39174843155E+01 0.41526498408E+01 0.43777255366E+01
 0.48890097881E+01 0.49875990364E+01 0.50246959455E+01 0.50246736686E+01 0.49875532929E+01
 0.48889819963E+01 0.47053006238E+01 0.44439838622E+01 0.41465907256E+01 0.38548900997E+01
 0.36064423617E+01 0.34286772369E+01 0.33368132023E+01 0.33368019623E+01 0.34286613860E+01
 0.36064462735E+01 0.38549062322E+01 0.41465904265E+01 0.44439655427E+01 0.47052945383E+01
 0.50176935898E+01 0.50127871199E+01 0.50016488545E+01 0.50126896598E+01 0.50175897726E+01
 0.49528138505E+01 0.47687594146E+01 0.44720917449E+01 0.41306346042E+01 0.38114083627E+01
 0.35560040410E+01 0.33927503254E+01 0.33368019623E+01 0.33927455364E+01 0.35560091174E+01
 0.38114173263E+01 0.41306140379E+01 0.44720317124E+01 0.47687071825E+01 0.49528385932E+01
 0.47293339930E+01 0.46181221935E+01 0.46181075835E+01 0.47293015228E+01 0.48640969345E+01
 0.49028658282E+01 0.47686450054E+01 0.44746025403E+01 0.41178699419E+01 0.37958365557E+01
 0.35560073825E+01 0.34286558352E+01 0.34286613860E+01 0.35560091174E+01 0.37958136312E+01
 0.41178315703E+01 0.44745749370E+01 0.47686409876E+01 0.49028826135E+01 0.48641272574E+01
 0.39571321807E+01 0.38250490105E+01 0.39572054114E+01 0.42824123732E+01 0.46276301290E+01
 0.48138104951E+01 0.47496107785E+01 0.44720438238E+01 0.41178836064E+01 0.38114380855E+01
 0.36064467786E+01 0.35345060595E+01 0.36064462735E+01 0.38114173263E+01 0.41178315703E+01
 0.44719917583E+01 0.47496124882E+01 0.48138662584E+01 0.46276615383E+01 0.42823638419E+01
 0.28578601874E+01 0.28579046711E+01 0.32575559765E+01 0.38782789336E+01 0.44558732215E+01
 0.47716411461E+01 0.47496373505E+01 0.44746372617E+01 0.41306531697E+01 0.38548976525E+01
 0.37028503918E+01 0.37028644451E+01 0.38549062322E+01 0.41306140379E+01 0.44745749370E+01
 0.47496124882E+01 0.47716581227E+01 0.44558700586E+01 0.38782127528E+01 0.32574616474E+01
 0.17763520473E+01 0.20641488939E+01 0.28092129862E+01 0.37161380640E+01 0.44558052954E+01
 0.48137976250E+01 0.47686956708E+01 0.44721298078E+01 0.41465773278E+01 0.39173964233E+01
 0.38351573843E+01 0.39174843155E+01 0.41465904265E+01 0.44720317124E+01 0.47686409876E+01
 0.48138662584E+01 0.44558700586E+01 0.37160654351E+01 0.28090441368E+01 0.20640206287E+01
 0.11056623939E+01 0.17575195302E+01 0.28090976347E+01 0.38780817012E+01 0.46275035214E+01
 0.49028595247E+01 0.47687835436E+01 0.44439855011E+01 0.41525709307E+01 0.39873390686E+01
 0.39873942957E+01 0.41526498408E+01 0.44439655427E+01 0.47687071825E+01 0.49028826135E+01
 0.46276615383E+01 0.38782127528E+01 0.28090441368E+01 0.17573372367E+01 0.11055624416E+01
 0.11055994787E+01 0.20639681504E+01 0.32572792580E+01 0.42821712112E+01 0.48640396390E+01
 0.49528322728E+01 0.47052833301E+01 0.43776842934E+01 0.41399039286E+01 0.40537045477E+01
 0.41399404289E+01 0.43777255366E+01 0.47052945383E+01 0.49528385932E+01 0.48641272574E+01
 0.42823638419E+01 0.32574616474E+01 0.20640206287E+01 0.11055624416E+01 0.73881761740E+00
 0.34847518415E+01 0.42270482748E+01 0.47964826337E+01 0.50175091855E+01 0.48922126266E+01
 0.45732106742E+01 0.42559133530E+01 0.40356571198E+01 0.39570760926E+01 0.40356791541E+01
 0.42559104966E+01 0.45731836878E+01 0.48922317398E+01 0.50175921701E+01 0.47965019583E+01
 0.42268413762E+01 0.34843451574E+01 0.28577503922E+01 0.26131551174E+01 0.28580894831E+01
 0.42270482748E+01 0.47612371516E+01 0.50355743760E+01 0.49874382587E+01 0.47089579078E+01
 0.43782960796E+01 0.41143434449E+01 0.39690400347E+01 0.39691025873E+01 0.41144239985E+01