       N       E                     dE             d eps       ncg     rms          rms(c)
DAV:   1    -0.403651460589E+01   -0.40365E+01   -0.12910E+03   756   0.290E+02
DAV:   2    -0.531181454732E+01   -0.12753E+01   -0.12615E+01   954   0.268E+01
DAV:   3    -0.531726197673E+01   -0.54474E-02   -0.54471E-02   798   0.170E+00
DAV:   4    -0.531726500194E+01   -0.30252E-05   -0.30237E-05   972   0.373E-02
DAV:   5    -0.531726500259E+01   -0.64907E-09   -0.10438E-08   696   0.421E-04    0.985E-01
DAV:   6    -0.529367631522E+01    0.23589E-01   -0.41384E-03   732   0.401E-01    0.591E-01
DAV:   7    -0.527995402717E+01    0.13722E-01   -0.91872E-03   720   0.599E-01    0.250E-02
DAV:   8    -0.527993497437E+01    0.19053E-04   -0.19515E-05   624   0.415E-02
   1 F= -.52799350E+01 E0= -.52786616E+01  d E =-.254680E-02
