fcc Si                                  
   4.50000000000000     
     0.445088    0.445088    0.000000
     0.000000    0.445088    0.445088
     0.445088    0.000000    0.445088
   Si
     1
Direct
  0.000000  0.000000  0.000000
 
   24   24   24
 -.27713686438E+01 -.21126568713E+01 -.34921292610E+00 0.19669652304E+01 0.41632174411E+01
 0.56978231838E+01 0.63345544827E+01 0.61750094394E+01 0.55563968517E+01 0.48716853442E+01
 0.43268795082E+01 0.39822624397E+01 0.38649084687E+01 0.39822624397E+01 0.43268795082E+01
 0.48716853442E+01 0.55563968517E+01 0.61750094394E+01 0.63345544827E+01 0.56978231838E+01
 0.41632174411E+01 0.19669652304E+01 -.34921292610E+00 -.21126568713E+01 -.21126568713E+01
 -.90308864717E+00 0.11258243869E+01 0.33511914161E+01 0.51600998630E+01 0.61679253350E+01
 0.63213950985E+01 0.58579153109E+01 0.51610667938E+01 0.45401890547E+01 0.40947730186E+01
 0.38643518664E+01 0.38643457732E+01 0.40947587982E+01 0.45401769509E+01 0.51610680969E+01
 0.58579292640E+01 0.63214059883E+01 0.61679151149E+01 0.51600702362E+01 0.33511632484E+01
 0.11258164624E+01 -.90307833179E+00 -.21126496087E+01 -.34921292610E+00 0.11258243869E+01
 0.30393770312E+01 0.48082596040E+01 0.59722762077E+01 0.63467742660E+01 0.60464597569E+01
 0.53885942516E+01 0.47188802938E+01 0.41931875207E+01 0.38627245364E+01 0.37505157082E+01
 0.38627007175E+01 0.41931540922E+01 0.47188598776E+01 0.53886018264E+01 0.60464844328E+01
 0.63467860008E+01 0.59722566295E+01 0.48082277963E+01 0.30393703205E+01 0.11258541720E+01
 -.34917815214E+00 -.90307833179E+00 0.19669652304E+01 0.33511914161E+01 0.48082596040E+01
 0.58881421061E+01 0.63306295809E+01 0.61395609291E+01 0.55405460798E+01 0.48520309801E+01
 0.42709400067E+01 0.38602381470E+01 0.36495250935E+01 0.36495095337E+01 0.38601986066E+01
 0.42708975814E+01 0.48520115210E+01 0.55405598046E+01 0.61395892632E+01 0.63306450600E+01
 0.58881433844E+01 0.48082792490E+01 0.33512541194E+01 0.19670453926E+01 0.11258541720E+01
 0.11258164624E+01 0.41632174411E+01 0.51600998630E+01 0.59722762077E+01 0.63306295809E+01
 0.61661266400E+01 0.56145804333E+01 0.49335799370E+01 0.43240966382E+01 0.38574347721E+01
 0.35683132422E+01 0.34708299079E+01 0.35682956959E+01 0.38574048448E+01 0.43240692974E+01
 0.49335725666E+01 0.56145964707E+01 0.61661526595E+01 0.63306589057E+01 0.59723271502E+01
 0.51601940111E+01 0.41633401308E+01 0.33512541194E+01 0.30393703205E+01 0.33511632484E+01
 0.56978231838E+01 0.61679253350E+01 0.63467742660E+01 0.61395609291E+01 0.56145804333E+01
 0.49609713381E+01 0.43509190637E+01 0.38551736954E+01 0.35117159670E+01 0.33374829575E+01
 0.33374882366E+01 0.35117265961E+01 0.38551800604E+01 0.43509204200E+01 0.49609730307E+01
 0.56145876030E+01 0.61395790846E+01 0.63468184033E+01 0.61680155044E+01 0.56979538749E+01
 0.51601940111E+01 0.48082792490E+01 0.48082277963E+01 0.51600702362E+01 0.63345544827E+01
 0.63213950985E+01 0.60464597569E+01 0.55405460798E+01 0.49335799370E+01 0.43509190637E+01
 0.38542996630E+01 0.34827073555E+01 0.32556320184E+01 0.31795895742E+01 0.32556647667E+01
 0.34827532561E+01 0.38543352955E+01 0.43509333909E+01 0.49335767623E+01 0.55405383810E+01
 0.60464675416E+01 0.63214364233E+01 0.63346369309E+01 0.61680155044E+01 0.59723271502E+01
 0.58881433844E+01 0.59722566295E+01 0.61679151149E+01 0.61750094394E+01 0.58579153109E+01
 0.53885942516E+01 0.48520309801E+01 0.43240966382E+01 0.38551736954E+01 0.34827073555E+01
 0.32280921718E+01 0.30998453957E+01 0.30998624392E+01 0.32281331177E+01 0.34827511423E+01
 0.38552016770E+01 0.43241029074E+01 0.48520213410E+01 0.53885792622E+01 0.58579103701E+01
 0.61750235552E+01 0.63214364233E+01 0.63468184033E+01 0.63306589057E+01 0.63306450600E+01
 0.63467860008E+01 0.63214059883E+01 0.55563968517E+01 0.51610667938E+01 0.47188802938E+01
 0.42709400067E+01 0.38574347721E+01 0.35117159670E+01 0.32556320184E+01 0.30998453957E+01
 0.30477480068E+01 0.30998482001E+01 0.32556360963E+01 0.35117193469E+01 0.38574369975E+01
 0.42709393239E+01 0.47188765701E+01 0.51610565933E+01 0.55563798433E+01 0.58579103701E+01
 0.60464675416E+01 0.61395790846E+01 0.61661526595E+01 0.61395892632E+01 0.60464844328E+01
 0.58579292640E+01 0.48716853442E+01 0.45401890547E+01 0.41931875207E+01 0.38602381470E+01
 0.35683132422E+01 0.33374829575E+01 0.31795895742E+01 0.30998624392E+01 0.30998482001E+01
 0.31795538605E+01 0.33374419413E+01 0.35682823970E+01 0.38602257285E+01 0.41931903934E+01
 0.45401975034E+01 0.48716883101E+01 0.51610565933E+01 0.53885792622E+01 0.55405383810E+01
 0.56145876030E+01 0.56145964707E+01 0.55405598046E+01 0.53886018264E+01 0.51610680969E+01
 0.43268795082E+01 0.40947730186E+01 0.38627245364E+01 0.36495250935E+01 0.34708299079E+01
 0.33374882366E+01 0.32556647667E+01 0.32281331177E+01 0.32556360963E+01 0.33374419413E+01
 0.34707831771E+01 0.36494923458E+01 0.38627134297E+01 0.40947810873E+01 0.43268979889E+01
 0.45401975034E+01 0.47188765701E+01 0.48520213410E+01 0.49335767623E+01 0.49609730307E+01
 0.49335725666E+01 0.48520115210E+01 0.47188598776E+01 0.45401769509E+01 0.39822624397E+01
 0.38643518664E+01 0.37505157082E+01 0.36495095337E+01 0.35682956959E+01 0.35117265961E+01
 0.34827532561E+01 0.34827511423E+01 0.35117193469E+01 0.35682823970E+01 0.36494923458E+01
 0.37504995453E+01 0.38643437393E+01 0.39822685425E+01 0.40947810873E+01 0.41931903934E+01
 0.42709393239E+01 0.43241029074E+01 0.43509333909E+01 0.43509204200E+01 0.43240692974E+01
 0.42708975814E+01 0.41931540922E+01 0.40947587982E+01 0.38649084687E+01 0.38643457732E+01
 0.38627007175E+01 0.38601986066E+01 0.38574048448E+01 0.38551800604E+01 0.38543352955E+01
 0.38552016770E+01 0.38574369975E+01 0.38602257285E+01 0.38627134297E+01 0.38643437393E+01
 0.38649001315E+01 0.38643437393E+01 0.38627134297E+01 0.38602257285E+01 0.38574369975E+01
 0.38552016770E+01 0.38543352955E+01 0.38551800604E+01 0.38574048448E+01 0.38601986066E+01
 0.38627007175E+01 0.38643457732E+01 0.39822624397E+01 0.40947587982E+01 0.41931540922E+01
 0.42708975814E+01 0.43240692974E+01 0.43509204200E+01 0.43509333909E+01 0.43241029074E+01
 0.42709393239E+01 0.41931903934E+01 0.40947810873E+01 0.39822685425E+01 0.38643437393E+01
 0.37504995453E+01 0.36494923458E+01 0.35682823970E+01 0.35117193469E+01 0.34827511423E+01
 0.34827532561E+01 0.35117265961E+01 0.35682956959E+01 0.36495095337E+01 0.37505157082E+01
 0.38643518664E+01 0.43268795082E+01 0.45401769509E+01 0.47188598776E+01 0.48520115210E+01
 0.49335725666E+01 0.49609730307E+01 0.49335767623E+01 0.48520213410E+01 0.47188765701E+01
 0.45401975034E+01 0.43268979889E+01 0.40947810873E+01 0.38627134297E+01 0.36494923458E+01
 0.34707831771E+01 0.33374419413E+01 0.32556360963E+01 0.32281331177E+01 0.32556647667E+01
 0.33374882366E+01 0.34708299079E+01 0.36495250935E+01 0.38627245364E+01 0.40947730186E+01
 0.48716853442E+01 0.51610680969E+01 0.53886018264E+01 0.55405598046E+01 0.56145964707E+01
 0.56145876030E+01 0.55405383810E+01 0.53885792622E+01 0.51610565933E+01 0.48716883101E+01
 0.45401975034E+01 0.41931903934E+01 0.38602257285E+01 0.35682823970E+01 0.33374419413E+01
 0.31795538605E+01 0.30998482001E+01 0.30998624392E+01 0.31795895742E+01 0.33374829575E+01
 0.35683132422E+01 0.38602381470E+01 0.41931875207E+01 0.45401890547E+01 0.55563968517E+01
 0.58579292640E+01 0.60464844328E+01 0.61395892632E+01 0.61661526595E+01 0.61395790846E+01
 0.60464675416E+01 0.58579103701E+01 0.55563798433E+01 0.51610565933E+01 0.47188765701E+01
 0.42709393239E+01 0.38574369975E+01 0.35117193469E+01 0.32556360963E+01 0.30998482001E+01
 0.30477480068E+01 0.30998453957E+01 0.32556320184E+01 0.35117159670E+01 0.38574347721E+01
 0.42709400067E+01 0.47188802938E+01 0.51610667938E+01 0.61750094394E+01 0.63214059883E+01
 0.63467860008E+01 0.63306450600E+01 0.63306589057E+01 0.63468184033E+01 0.63214364233E+01
 0.61750235552E+01 0.58579103701E+01 0.53885792622E+01 0.48520213410E+01 0.43241029074E+01
 0.38552016770E+01 0.34827511423E+01 0.32281331177E+01 0.30998624392E+01 0.30998453957E+01
 0.32280921718E+01 0.34827073555E+01 0.38551736954E+01 0.43240966382E+01 0.48520309801E+01
 0.53885942516E+01 0.58579153109E+01 0.63345544827E+01 0.61679151149E+01 0.59722566295E+01
 0.58881433844E+01 0.59723271502E+01 0.61680155044E+01 0.63346369309E+01 0.63214364233E+01
 0.60464675416E+01 0.55405383810E+01 0.49335767623E+01 0.43509333909E+01 0.38543352955E+01
 0.34827532561E+01 0.32556647667E+01 0.31795895742E+01 0.32556320184E+01 0.34827073555E+01
 0.38542996630E+01 0.43509190637E+01 0.49335799370E+01 0.55405460798E+01 0.60464597569E+01
 0.63213950985E+01 0.56978231838E+01 0.51600702362E+01 0.48082277963E+01 0.48082792490E+01
 0.51601940111E+01 0.56979538749E+01 0.61680155044E+01 0.63468184033E+01 0.61395790846E+01
 0.56145876030E+01 0.49609730307E+01 0.43509204200E+01 0.38551800604E+01 0.35117265961E+01
 0.33374882366E+01 0.33374829575E+01 0.35117159670E+01 0.38551736954E+01 0.43509190637E+01
 0.49609713381E+01 0.56145804333E+01 0.61395609291E+01 0.63467742660E+01 0.61679253350E+01
 0.41632174411E+01 0.33511632484E+01 0.30393703205E+01 0.33512541194E+01 0.41633401308E+01
 0.51601940111E+01 0.59723271502E+01 0.63306589057E+01 0.61661526595E+01 0.56145964707E+01
 0.49335725666E+01 0.43240692974E+01 0.38574048448E+01 0.35682956959E+01 0.34708299079E+01
 0.35683132422E+01 0.38574347721E+01 0.43240966382E+01 0.49335799370E+01 0.56145804333E+01
 0.61661266400E+01 0.63306295809E+01 0.59722762077E+01 0.51600998630E+01 0.19669652304E+01
 0.11258164624E+01 0.11258541720E+01 0.19670453926E+01 0.33512541194E+01 0.48082792490E+01
 0.58881433844E+01 0.63306450600E+01 0.61395892632E+01 0.55405598046E+01 0.48520115210E+01
 0.42708975814E+01 0.38601986066E+01 0.36495095337E+01 0.36495250935E+01 0.38602381470E+01
 0.42709400067E+01 0.48520309801E+01 0.55405460798E+01 0.61395609291E+01 0.63306295809E+01
 0.58881421061E+01 0.48082596040E+01 0.33511914161E+01 -.34921292610E+00 -.90307833179E+00
 -.34917815214E+00 0.11258541720E+01 0.30393703205E+01 0.48082277963E+01 0.59722566295E+01
 0.63467860008E+01 0.60464844328E+01 0.53886018264E+01 0.47188598776E+01 0.41931540922E+01
 0.38627007175E+01 0.37505157082E+01 0.38627245364E+01 0.41931875207E+01 0.47188802938E+01
 0.53885942516E+01 0.60464597569E+01 0.63467742660E+01 0.59722762077E+01 0.48082596040E+01
 0.30393770312E+01 0.11258243869E+01 -.21126568713E+01 -.21126496087E+01 -.90307833179E+00
 0.11258164624E+01 0.33511632484E+01 0.51600702362E+01 0.61679151149E+01 0.63214059883E+01
 0.58579292640E+01 0.51610680969E+01 0.45401769509E+01 0.40947587982E+01 0.38643457732E+01
 0.38643518664E+01 0.40947730186E+01 0.45401890547E+01 0.51610667938E+01 0.58579153109E+01
 0.63213950985E+01 0.61679253350E+01 0.51600998630E+01 0.33511914161E+01 0.11258243869E+01
 -.90308864717E+00 -.21127279114E+01 -.90301839709E+00 0.11259678876E+01 0.33513014696E+01
 0.51601284405E+01 0.61679035286E+01 0.63213742862E+01 0.58579124018E+01 0.51610687215E+01
 0.45401865613E+01 0.40947706157E+01 0.38643527803E+01 0.38643461878E+01 0.40947582193E+01
 0.45401800892E+01 0.51610733445E+01 0.58579295477E+01 0.63214082311E+01 0.61679428761E+01
 0.51601276355E+01 0.33512020930E+01 0.11257664781E+01 -.90322980460E+00 -.21128192237E+01
 -.90301839709E+00 0.66709923109E+00 0.27123710230E+01 0.46196951005E+01 0.59022966368E+01
 0.63593125551E+01 0.61019357773E+01 0.54544893945E+01 0.47787787918E+01 0.42463089873E+01
 0.39109482296E+01 0.37969737832E+01 0.39109255463E+01 0.42462821504E+01 0.47787664273E+01
 0.54544999741E+01 0.61019717633E+01 0.63593665185E+01 0.59023285544E+01 0.46196364404E+01
 0.27121785998E+01 0.66682955697E+00 -.90321808821E+00 -.14916751960E+01 0.11259678876E+01
 0.27123710230E+01 0.44078369467E+01 0.57105982977E+01 0.63222080289E+01 0.62302521142E+01
 0.56657217835E+01 0.49696874718E+01 0.43743381084E+01 0.39516909645E+01 0.37343181438E+01
 0.37342992487E+01 0.39516480183E+01 0.43742985541E+01 0.49696706703E+01 0.56657357872E+01
 0.62302976410E+01 0.63222663634E+01 0.57106141307E+01 0.44077463627E+01 0.27121697123E+01
 0.11257500909E+01 0.16836573204E+00 0.16846052534E+00 0.33513014696E+01 0.46196951005E+01
 0.57105982977E+01 0.62977320029E+01 0.62793647468E+01 0.57877801807E+01 0.51018414730E+01
 0.44706113717E+01 0.39838777255E+01 0.36810666173E+01 0.35787573876E+01 0.36810320917E+01
 0.39838306094E+01 0.44705741363E+01 0.51018250747E+01 0.57877922047E+01 0.62794089850E+01
 0.62977907242E+01 0.57106218639E+01 0.46196413324E+01 0.33511876064E+01 0.23406801911E+01
 0.19560663764E+01 0.23407750183E+01 0.51601284405E+01 0.59022966368E+01 0.63222080289E+01
 0.62793647468E+01 0.58270127972E+01 0.51691652356E+01 0.45300319378E+01 0.40058494253E+01
 0.36406855663E+01 0.34548711409E+01 0.34548629388E+01 0.36406667434E+01 0.40058289556E+01
 0.45300132323E+01 0.51691507804E+01 0.58270159984E+01 0.62794000664E+01 0.63222706406E+01
 0.59023552061E+01 0.51601529647E+01 0.43848185567E+01 0.38942584046E+01 0.38942661982E+01
 0.43848243036E+01 0.61679035286E+01 0.63593125551E+01 0.62302521142E+01 0.57877801807E+01
 0.51691652356E+01 0.45500798223E+01 0.40169115401E+01 0.36155243036E+01 0.33693872933E+01
 0.32868218109E+01 0.33694031915E+01 0.36155481833E+01 0.40169286248E+01 0.45500778966E+01
 0.51691469710E+01 0.57877691159E+01 0.62302745333E+01 0.63593761296E+01 0.61679890739E+01
 0.57879080606E+01 0.54305940157E+01 0.52861869169E+01 0.54305516597E+01 0.57878323480E+01
 0.63213742862E+01 0.61019357773E+01 0.56657217835E+01 0.51018414730E+01 0.45300319378E+01
 0.40169115401E+01 0.36069795316E+01 0.33259084220E+01 0.31841423049E+01 0.31841602517E+01
 0.33259532904E+01 0.36070301784E+01 0.40169426443E+01 0.45300314038E+01 0.51018168908E+01
 0.56656995761E+01 0.61019430282E+01 0.63214194114E+01 0.63315713150E+01 0.62260011745E+01
 0.61298852381E+01 0.61298597405E+01 0.62259383336E+01 0.63315016357E+01 0.58579124018E+01
 0.54544893945E+01 0.49696874718E+01 0.44706113717E+01 0.40058494253E+01 0.36155243036E+01
 0.33259084220E+01 0.31496948242E+01 0.30907881496E+01 0.31497170709E+01 0.33259430821E+01
 0.36155564292E+01 0.40058654531E+01 0.44706060768E+01 0.49696667651E+01 0.54544654492E+01
 0.58579024376E+01 0.61216955398E+01 0.62478431372E+01 0.62850492958E+01 0.62894017665E+01
 0.62850315245E+01 0.62478215497E+01 0.61216859655E+01 0.51610687215E+01 0.47787787918E+01
 0.43743381084E+01 0.39838777255E+01 0.36406855663E+01 0.33693872933E+01 0.31841423049E+01
 0.30907881496E+01 0.30907842078E+01 0.31841322198E+01 0.33693752558E+01 0.36406768906E+01
 0.39838745718E+01 0.43743366879E+01 0.47787741939E+01 0.51610555499E+01 0.54883988210E+01
 0.57293133493E+01 0.58750830871E+01 0.59401847683E+01 0.59401897922E+01 0.58750969265E+01
 0.57293328856E+01 0.54884191637E+01 0.45401865613E+01 0.42463089873E+01 0.39516909645E+01
 0.36810666173E+01 0.34548711409E+01 0.32868218109E+01 0.31841602517E+01 0.31497170709E+01
 0.31841322198E+01 0.32867764648E+01 0.34548252884E+01 0.36810357514E+01 0.39516824119E+01
 0.42463169315E+01 0.45401988896E+01 0.48087054036E+01 0.50317845961E+01 0.51964503473E+01
 0.52961553221E+01 0.53291986357E+01 0.52961653834E+01 0.51964636679E+01 0.50317910606E+01
 0.48086997204E+01 0.40947706157E+01 0.39109482296E+01 0.37343181438E+01 0.35787573876E+01
 0.34548629388E+01 0.33694031915E+01 0.33259532904E+01 0.33259430821E+01 0.33693752558E+01
 0.34548252884E+01 0.35787205280E+01 0.37342921126E+01 0.39109403272E+01 0.40947813136E+01
 0.42705870537E+01 0.44244544156E+01 0.45459906392E+01 0.46290541052E+01 0.46709633618E+01
 0.46709577900E+01 0.46290378691E+01 0.45459656494E+01 0.44244261280E+01 0.42705635858E+01
 0.38643527803E+01 0.37969737832E+01 0.37342992487E+01 0.36810320917E+01 0.36406667434E+01
 0.36155481833E+01 0.36070301784E+01 0.36155564292E+01 0.36406768906E+01 0.36810357514E+01
 0.37342921126E+01 0.37969590217E+01 0.38643420959E+01 0.39308830161E+01 0.39910291535E+01
 0.40403219848E+01 0.40761170558E+01 0.40975129542E+01 0.41045846479E+01 0.40974896161E+01
 0.40760784326E+01 0.40402823505E+01 0.39910030752E+01 0.39308772327E+01 0.38643461878E+01
 0.39109255463E+01 0.39516480183E+01 0.39838306094E+01 0.40058289556E+01 0.40169286248E+01
 0.40169426443E+01 0.40058654531E+01 0.39838745718E+01 0.39516824119E+01 0.39109403272E+01
 0.38643420959E+01 0.38153050148E+01 0.37674366310E+01 0.37241200549E+01 0.36883654841E+01
 0.36627776166E+01 0.36493995412E+01 0.36493931200E+01 0.36627619217E+01 0.36883501182E+01
 0.37241141129E+01 0.37674429963E+01 0.38153171937E+01 0.40947582193E+01 0.42462821504E+01
 0.43742985541E+01 0.44705741363E+01 0.45300132323E+01 0.45500778966E+01 0.45300314038E+01
 0.44706060768E+01 0.43743366879E+01 0.42463169315E+01 0.40947813136E+01 0.39308830161E+01
 0.37674366310E+01 0.36170249004E+01 0.34902766846E+01 0.33949712187E+01 0.33360540900E+01
 0.33161508509E+01 0.33360700619E+01 0.33949992143E+01 0.34903089341E+01 0.36170519455E+01
 0.37674499002E+01 0.39308773752E+01 0.45401800892E+01 0.47787664273E+01 0.49696706703E+01
 0.51018250747E+01 0.51691507804E+01 0.51691469710E+01 0.51018168908E+01 0.49696667651E+01
 0.47787741939E+01 0.45401988896E+01 0.42705870537E+01 0.39910291535E+01 0.37241200549E+01
 0.34902766846E+01 0.33049189424E+01 0.31776181155E+01 0.31131175790E+01 0.31131353706E+01
 0.31776638453E+01 0.33049726790E+01 0.34903174376E+01 0.37241350440E+01 0.39910195038E+01
 0.42705658662E+01 0.51610733445E+01 0.54544999741E+01 0.56657357872E+01 0.57877922047E+01
 0.58270159984E+01 0.57877691159E+01 0.56656995761E+01 0.54544654492E+01 0.51610555499E+01
 0.48087054036E+01 0.44244544156E+01 0.40403219848E+01 0.36883654841E+01 0.33949712187E+01
 0.31776181155E+01 0.30451916315E+01 0.30008553791E+01 0.30452142100E+01 0.31776500528E+01
 0.33949956124E+01 0.36883718268E+01 0.40403125694E+01 0.44244416404E+01 0.48087027451E+01
 0.58579295477E+01 0.61019717633E+01 0.62302976410E+01 0.62794089850E+01 0.62794000664E+01
 0.62302745333E+01 0.61019430282E+01 0.58579024376E+01 0.54883988210E+01 0.50317845961E+01
 0.45459906392E+01 0.40761170558E+01 0.36627776166E+01 0.33360540900E+01 0.31131175790E+01
 0.30008553791E+01 0.30008510590E+01 0.31131041857E+01 0.33360343536E+01 0.36627567359E+01
 0.40761036480E+01 0.45459888786E+01 0.50317954486E+01 0.54884208077E+01 0.63214082311E+01
 0.63593665185E+01 0.63222663634E+01 0.62977907242E+01 0.63222706406E+01 0.63593761296E+01
 0.63214194114E+01 0.61216955398E+01 0.57293133493E+01 0.51964503473E+01 0.46290541052E+01
 0.40975129542E+01 0.36493995412E+01 0.33161508509E+01 0.31131353706E+01 0.30452142100E+01
 0.31131041857E+01 0.33161012454E+01 0.36493524018E+01 0.40974885475E+01 0.46290567238E+01
 0.51964682165E+01 0.57293251956E+01 0.61216921948E+01 0.61679428761E+01 0.59023285544E+01
 0.57106141307E+01 0.57106218639E+01 0.59023552061E+01 0.61679890739E+01 0.63315713150E+01
 0.62478431372E+01 0.58750830871E+01 0.52961553221E+01 0.46709633618E+01 0.41045846479E+01
 0.36493931200E+01 0.33360700619E+01 0.31776638453E+01 0.31776500528E+01 0.33360343536E+01
 0.36493524018E+01 0.41045599897E+01 0.46709641296E+01 0.52961683718E+01 0.58750809940E+01
 0.62478118932E+01 0.63315213107E+01 0.51601276355E+01 0.46196364404E+01 0.44077463627E+01
 0.46196413324E+01 0.51601529647E+01 0.57879080606E+01 0.62260011745E+01 0.62850492958E+01
 0.59401847683E+01 0.53291986357E+01 0.46709577900E+01 0.40974896161E+01 0.36627619217E+01
 0.33949992143E+01 0.33049726790E+01 0.33949956124E+01 0.36627567359E+01 0.40974885475E+01
 0.46709641296E+01 0.53292039646E+01 0.59401695452E+01 0.62850039008E+01 0.62259380318E+01
 0.57878553209E+01 0.33512020930E+01 0.27121785998E+01 0.27121697123E+01 0.33511876064E+01
 0.43848185567E+01 0.54305940157E+01 0.61298852381E+01 0.62894017665E+01 0.59401897922E+01
 0.52961653834E+01 0.46290378691E+01 0.40760784326E+01 0.36883501182E+01 0.34903089341E+01
 0.34903174376E+01 0.36883718268E+01 0.40761036480E+01 0.46290567238E+01 0.52961683718E+01
 0.59401695452E+01 0.62893589128E+01 0.61298344285E+01 0.54305595495E+01 0.43848140365E+01
 0.11257664781E+01 0.66682955697E+00 0.11257500909E+01 0.23406801911E+01 0.38942584046E+01
 0.52861869169E+01 0.61298597405E+01 0.62850315245E+01 0.58750969265E+01 0.51964636679E+01
 0.45459656494E+01 0.40402823505E+01 0.37241141129E+01 0.36170519455E+01 0.37241350440E+01
 0.40403125694E+01 0.45459888786E+01 0.51964682165E+01 0.58750809940E+01 0.62850039008E+01
 0.61298344285E+01 0.52861773098E+01 0.38942674782E+01 0.23407005697E+01 -.90322980460E+00
 -.90321808821E+00 0.16836573204E+00 0.19560663764E+01 0.38942661982E+01 0.54305516597E+01
 0.62259383336E+01 0.62478215497E+01 0.57293328856E+01 0.50317910606E+01 0.44244261280E+01
 0.39910030752E+01 0.37674429963E+01 0.37674499002E+01 0.39910195038E+01 0.44244416404E+01
 0.50317954486E+01 0.57293251956E+01 0.62478118932E+01 0.62259380318E+01 0.54305595495E+01
 0.38942674782E+01 0.19560503578E+01 0.16834134242E+00 -.21128192237E+01 -.14916751960E+01
 0.16846052534E+00 0.23407750183E+01 0.43848243036E+01 0.57878323480E+01 0.63315016357E+01
 0.61216859655E+01 0.54884191637E+01 0.48086997204E+01 0.42705635858E+01 0.39308772327E+01
 0.38153171937E+01 0.39308773752E+01 0.42705658662E+01 0.48087027451E+01 0.54884208077E+01
 0.61216921948E+01 0.63315213107E+01 0.57878553209E+01 0.43848140365E+01 0.23407005697E+01
 0.16834134242E+00 -.14917678621E+01 -.34931779947E+00 0.11258087530E+01 0.30394409189E+01
 0.48083421099E+01 0.59723259047E+01 0.63467855340E+01 0.60464562063E+01 0.53885933015E+01
 0.47188819603E+01 0.41931875622E+01 0.38627239566E+01 0.37505163745E+01 0.38627013874E+01
 0.41931544958E+01 0.47188624136E+01 0.53886059072E+01 0.60464860993E+01 0.63467892085E+01
 0.59722778652E+01 0.48082759902E+01 0.30394200175E+01 0.11258525731E+01 -.34926243838E+00
 -.90321275025E+00 0.11258087530E+01 0.27123147829E+01 0.44078925521E+01 0.57106915158E+01
 0.63222654262E+01 0.62302617624E+01 0.56657154204E+01 0.49696884232E+01 0.43743433987E+01
 0.39516922466E+01 0.37343173712E+01 0.37343004261E+01 0.39516487818E+01 0.43742973769E+01
 0.49696721782E+01 0.56657407009E+01 0.62302971367E+01 0.63222599903E+01 0.57106274426E+01
 0.44078086356E+01 0.27122637130E+01 0.11258004493E+01 0.16830215452E+00 0.16829801845E+00
 0.30394409189E+01 0.44078925521E+01 0.56020137473E+01 0.62746966071E+01 0.63122139016E+01
 0.58453021248E+01 0.51598004228E+01 0.45213304440E+01 0.40277443161E+01 0.37202046197E+01
 0.36162239023E+01 0.37201675297E+01 0.40276854522E+01 0.45212799378E+01 0.51597865537E+01
 0.58453255074E+01 0.63122387978E+01 0.62746827668E+01 0.56019525696E+01 0.44078161005E+01
 0.30393843651E+01 0.19559608833E+01 0.15445775164E+01 0.19559867803E+01 0.48083421099E+01
 0.57106915158E+01 0.62746966071E+01 0.63334604000E+01 0.59308995392E+01 0.52779163785E+01
 0.46243932378E+01 0.40855602584E+01 0.37089974162E+01 0.35170438760E+01 0.35170298992E+01
 0.37089590018E+01 0.40855103388E+01 0.46243516333E+01 0.52778998456E+01 0.59309069023E+01
 0.63334708689E+01 0.62746878848E+01 0.57106572647E+01 0.48082972748E+01 0.38942000386E+01
 0.33229232230E+01 0.33229357113E+01 0.38942345286E+01 0.59723259047E+01 0.63222654262E+01
 0.63122139016E+01 0.59308995392E+01 0.53178502593E+01 0.46773768777E+01 0.41215383304E+01
 0.37011898384E+01 0.34427449222E+01 0.33559387475E+01 0.34427457203E+01 0.37011839889E+01
 0.41215192991E+01 0.46773481817E+01 0.53178239206E+01 0.59308872643E+01 0.63122142656E+01
 0.63222685041E+01 0.59723204708E+01 0.54305552788E+01 0.49521631277E+01 0.47628557655E+01
 0.49521756476E+01 0.54305695743E+01 0.63467855340E+01 0.62302617624E+01 0.58453021248E+01
 0.52779163785E+01 0.46773768777E+01 0.41337303831E+01 0.36971634123E+01 0.33969424056E+01
 0.32452867370E+01 0.32453028729E+01 0.33969799318E+01 0.36971972810E+01 0.41337383529E+01
 0.46773551639E+01 0.52778805634E+01 0.58452753002E+01 0.62302534598E+01 0.63467880001E+01
 0.62259645343E+01 0.59991892287E+01 0.58303071820E+01 0.58303110526E+01 0.59991948962E+01
 0.62259637772E+01 0.60464562063E+01 0.56657154204E+01 0.51598004228E+01 0.46243932378E+01
 0.41215383304E+01 0.36971634123E+01 0.33814882547E+01 0.31892070289E+01 0.31249099337E+01
 0.31892423631E+01 0.33815416266E+01 0.36972080998E+01 0.41215515608E+01 0.46243727933E+01
 0.51597625631E+01 0.56656821341E+01 0.60464357039E+01 0.62478093154E+01 0.62945413754E+01
 0.62662390281E+01 0.62453311237E+01 0.62662513018E+01 0.62945576919E+01 0.62478252052E+01
 0.53885933015E+01 0.49696884232E+01 0.45213304440E+01 0.40855602584E+01 0.37011898384E+01
 0.33969424056E+01 0.31892070289E+01 0.30845771287E+01 0.30845840955E+01 0.31892270281E+01
 0.33969683548E+01 0.37012098122E+01 0.40855624074E+01 0.45213142056E+01 0.49696623586E+01
 0.53885635667E+01 0.57292932527E+01 0.59549214465E+01 0.60730873746E+01 0.61178691862E+01
 0.61178805525E+01 0.60731155915E+01 0.59549538209E+01 0.57293237770E+01 0.47188819603E+01
 0.43743433987E+01 0.40277443161E+01 0.37089974162E+01 0.34427449222E+01 0.32452867370E+01
 0.31249099337E+01 0.30845840955E+01 0.31248934977E+01 0.32452625337E+01 0.34427233772E+01
 0.37089840249E+01 0.40277381330E+01 0.43743393845E+01 0.47188763420E+01 0.50317795086E+01
 0.52894435325E+01 0.54743372248E+01 0.55806064392E+01 0.56145973270E+01 0.55806235921E+01
 0.54743621470E+01 0.52894657152E+01 0.50317923696E+01 0.41931875622E+01 0.39516922466E+01
 0.37202046197E+01 0.35170438760E+01 0.33559387475E+01 0.32453028729E+01 0.31892423631E+01
 0.31892270281E+01 0.32452625337E+01 0.33558883718E+01 0.35169997400E+01 0.37201775557E+01
 0.39516845615E+01 0.41931937810E+01 0.44244563419E+01 0.46269421288E+01 0.47868194397E+01
 0.48959908631E+01 0.49510255439E+01 0.49510234079E+01 0.48959840397E+01 0.47868075026E+01
 0.46269270550E+01 0.44244429132E+01 0.38627239566E+01 0.37343173712E+01 0.36162239023E+01
 0.35170298992E+01 0.34427457203E+01 0.33969799318E+01 0.33815416266E+01 0.33969683548E+01
 0.34427233772E+01 0.35169997400E+01 0.36161919444E+01 0.37342914635E+01 0.38627127359E+01
 0.39910294780E+01 0.41086252627E+01 0.42066104211E+01 0.42790759479E+01 0.43231175080E+01
 0.43378295634E+01 0.43230918171E+01 0.42790352168E+01 0.42065694993E+01 0.41085972415E+01
 0.39910210117E+01 0.37505163745E+01 0.37343004261E+01 0.37201675297E+01 0.37089590018E+01
 0.37011839889E+01 0.36971972810E+01 0.36972080998E+01 0.37012098122E+01 0.37089840249E+01
 0.37201775557E+01 0.37342914635E+01 0.37504961275E+01 0.37674334319E+01 0.37833119823E+01
 0.37964120012E+01 0.38057269736E+01 0.38112586793E+01 0.38136953492E+01 0.38136815201E+01
 0.38112239553E+01 0.38056883769E+01 0.37963873326E+01 0.37833095636E+01 0.37674492571E+01
 0.38627013874E+01 0.39516487818E+01 0.40276854522E+01 0.40855103388E+01 0.41215192991E+01
 0.41337383529E+01 0.41215515608E+01 0.40855624074E+01 0.40277381330E+01 0.39516845615E+01
 0.38627127359E+01 0.37674334319E+01 0.36729335223E+01 0.35858891388E+01 0.35119911569E+01
 0.34557705455E+01 0.34206012906E+01 0.34086283150E+01 0.34205987681E+01 0.34557698555E+01
 0.35119978951E+01 0.35859046405E+01 0.36729522302E+01 0.37674430621E+01 0.41931544958E+01
 0.43742973769E+01 0.45212799378E+01 0.46243516333E+01 0.46773481817E+01 0.46773551639E+01
 0.46243727933E+01 0.45213142056E+01 0.43743393845E+01 0.41931937810E+01 0.39910294780E+01
 0.37833119823E+01 0.35858891388E+01 0.34128671530E+01 0.32751286686E+01 0.31799407924E+01
 0.31314497309E+01 0.31314630042E+01 0.31799757749E+01 0.32751727415E+01 0.34129055106E+01
 0.35859103004E+01 0.37833094280E+01 0.39910043883E+01 0.47188624136E+01 0.49696721782E+01
 0.51597865537E+01 0.52778998456E+01 0.53178239206E+01 0.52778805634E+01 0.51597625631E+01
 0.49696623586E+01 0.47188763420E+01 0.44244563419E+01 0.41086252627E+01 0.37964120012E+01
 0.35119911569E+01 0.32751286686E+01 0.30992487971E+01 0.29917135611E+01 0.29556255126E+01
 0.29917469113E+01 0.30992992339E+01 0.32751726179E+01 0.35120100116E+01 0.37964002816E+01
 0.41085941256E+01 0.44244253554E+01 0.53886059072E+01 0.56657407009E+01 0.58453255074E+01
 0.59309069023E+01 0.59308872643E+01 0.58452753002E+01 0.56656821341E+01 0.53885635667E+01
 0.50317795086E+01 0.46269421288E+01 0.42066104211E+01 0.38057269736E+01 0.34557705455E+01
 0.31799407924E+01 0.29917135611E+01 0.28968263688E+01 0.28968342250E+01 0.29917317270E+01
 0.31799561916E+01 0.34557704604E+01 0.38057073961E+01 0.42065820549E+01 0.46269234141E+01
 0.50317891002E+01 0.60464860993E+01 0.62302971367E+01 0.63122387978E+01 0.63334708689E+01
 0.63122142656E+01 0.62302534598E+01 0.60464357039E+01 0.57292932527E+01 0.52894435325E+01
 0.47868194397E+01 0.42790759479E+01 0.38112586793E+01 0.34206012906E+01 0.31314497309E+01
 0.29556255126E+01 0.28968342250E+01 0.29556115926E+01 0.31314252138E+01 0.34205711610E+01
 0.38112289948E+01 0.42790551877E+01 0.47868161755E+01 0.52894657152E+01 0.57293356012E+01
 0.63467892085E+01 0.63222599903E+01 0.62746827668E+01 0.62746878848E+01 0.63222685041E+01
 0.63467880001E+01 0.62478093154E+01 0.59549214465E+01 0.54743372248E+01 0.48959908631E+01
 0.43231175080E+01 0.38136953492E+01 0.34086283150E+01 0.31314630042E+01 0.29917469113E+01
 0.29917317270E+01 0.31314252138E+01 0.34085839015E+01 0.38136616305E+01 0.43231039171E+01
 0.48960000645E+01 0.54743627866E+01 0.59549492648E+01 0.62478270572E+01 0.59722778652E+01
 0.57106274426E+01 0.56019525696E+01 0.57106572647E+01 0.59723204708E+01 0.62259645343E+01
 0.62945413754E+01 0.60730873746E+01 0.55806064392E+01 0.49510255439E+01 0.43378295634E+01
 0.38136815201E+01 0.34205987681E+01 0.31799757749E+01 0.30992992339E+01 0.31799561916E+01
 0.34205711610E+01 0.38136616305E+01 0.43378271638E+01 0.49510406897E+01 0.55806281951E+01
 0.60731003623E+01 0.62945329056E+01 0.62259319705E+01 0.48082759902E+01 0.44078086356E+01
 0.44078161005E+01 0.48082972748E+01 0.54305552788E+01 0.59991892287E+01 0.62662390281E+01
 0.61178691862E+01 0.56145973270E+01 0.49510234079E+01 0.43230918171E+01 0.38112239553E+01
 0.34557698555E+01 0.32751727415E+01 0.32751726179E+01 0.34557704604E+01 0.38112289948E+01
 0.43231039171E+01 0.49510406897E+01 0.56146099831E+01 0.61178675117E+01 0.62662196104E+01