       N       E                     dE             d eps       ncg     rms          rms(c)
DAV:   1    -0.376380275357E+01   -0.37638E+01   -0.11821E+03   786   0.281E+02
DAV:   2    -0.544088775951E+01   -0.16771E+01   -0.14933E+01   942   0.262E+01
DAV:   3    -0.545199119822E+01   -0.11103E-01   -0.11086E-01   786   0.223E+00
DAV:   4    -0.545200533725E+01   -0.14139E-04   -0.14139E-04  1032   0.761E-02
DAV:   5    -0.545200534234E+01   -0.50915E-08   -0.52440E-08   696   0.104E-03    0.692E-01
DAV:   6    -0.543867731231E+01    0.13328E-01   -0.54674E-03   762   0.406E-01    0.405E-01
DAV:   7    -0.543181507430E+01    0.68622E-02   -0.10249E-02   732   0.554E-01    0.266E-02
DAV:   8    -0.543178359913E+01    0.31475E-04   -0.35091E-05   624   0.535E-02
   1 F= -.54317836E+01 E0= -.54312226E+01  d E =-.112207E-02
