LAMMPS (17 Nov 2016)
Reading data file ...
  orthogonal box = (-16.4064 -16.4064 -16.4064) to (24.4562 24.4562 24.4562)
  2 by 2 by 7 MPI processor grid
  reading atoms ...
  4000 atoms
Reading potential file AlCu.eam.alloy with DATE: 2008-10-01
Neighbor list info ...
  1 neighbor list requests
  update every 1 steps, delay 10 steps, check yes
  max neighbors/atom: 2000, page size: 100000
  master list distance cutoff = 8.6825
  ghost atom cutoff = 8.6825
  binsize = 4.34125, bins = 10 10 10
Setting up Verlet run ...
  Unit style    : metal
  Current step  : 0
  Time step     : 0.001
Memory usage per processor = 3.68056 Mbytes
Step PotEng KinEng TotEng Enthalpy Temp Volume Press 
       0    -13108.43    180.91896   -12927.511   -12921.152          350    68230.709    149.30352 
    1000   -13087.218    174.98193   -12912.236   -12816.867     338.5144    68230.709    2239.4305 
    2000   -13083.753    184.47395   -12899.279   -12783.114    356.87737    68230.709    2727.7674 
    3000   -13082.557     181.5287   -12901.029   -12776.558    351.17958    68230.709    2922.7905 
    4000   -13084.644    178.34706   -12906.297   -12794.654    345.02449    68230.709    2621.5575 
    5000    -13081.28    182.34718   -12898.933   -12774.753    352.76298    68230.709    2915.9586 
    6000   -13084.318    183.13653   -12901.182   -12786.862    354.29005    68230.709    2684.4244 
    7000   -13083.947    181.29155   -12902.655   -12787.092    350.72079    68230.709     2713.634 
    8000   -13083.629     181.7118   -12901.917    -12784.11     351.5338    68230.709    2766.3363 
    9000   -13079.795    179.61505    -12900.18   -12770.975     347.4775    68230.709    3033.9537 
   10000   -13087.004    180.85763   -12906.146   -12805.151    349.88134    68230.709    2371.5387 
   11000   -13082.929     181.3912   -12901.538   -12779.916    350.91357    68230.709    2855.8996 
   12000   -13082.357    181.95453   -12900.402   -12780.026    352.00337    68230.709     2826.652 
   13000   -13087.924    182.30607   -12905.618   -12806.238    352.68345    68230.709    2333.6299 
   14000   -13078.654    182.41247   -12896.241   -12754.958     352.8893    68230.709    3317.5752 
   15000   -13081.947    179.34292   -12902.604   -12780.125    346.95104    68230.709    2876.0037 
   16000   -13085.138    181.19516   -12903.943   -12794.235    350.53431    68230.709    2576.1291 
   17000   -13077.176    182.46428   -12894.712   -12747.782    352.98952    68230.709    3450.1747 
   18000   -13082.582    181.94243    -12900.64   -12777.983    351.97998    68230.709    2880.1967 
   19000    -13086.03    181.86142   -12904.168   -12797.612    351.82325    68230.709    2502.1354 
   20000   -13081.229    181.67607   -12899.553   -12773.184    351.46468    68230.709     2967.364 
   21000   -13084.393     184.3406   -12900.053   -12786.505     356.6194    68230.709    2666.2902 
   22000    -13083.61    178.99341   -12904.617   -12787.956    346.27489    68230.709    2739.3888 
   23000   -13081.689    181.05576   -12900.634   -12776.571    350.26465    68230.709    2913.2133 
   24000   -13081.233    188.38929   -12892.843   -12759.033    364.45185    68230.709     3142.098 
   25000   -13083.088     181.5235   -12901.565   -12783.218    351.16952    68230.709    2779.0005 
   26000   -13083.406    178.62292   -12904.783   -12790.316    345.55815    68230.709     2687.883 
   27000   -13081.586    182.63563   -12898.951   -12772.708    353.32102    68230.709    2964.4031 
   28000   -13083.439    182.16171   -12901.277   -12785.045    352.40419    68230.709    2729.3365 
   29000   -13082.978    178.55574   -12904.422   -12785.303     345.4282    68230.709    2797.1067 
   30000   -13085.247    185.82727   -12899.419    -12785.12    359.49545    68230.709    2683.9424 
   31000   -13080.604    183.11386    -12897.49   -12768.748    354.24617    68230.709     3023.104 
   32000   -13086.004    180.55008   -12905.454   -12800.389    349.28638    68230.709    2467.1001 
   33000   -13081.504    181.82088   -12899.684   -12770.174    351.74482    68230.709    3041.1117 
   34000   -13083.396    184.53832   -12898.858   -12778.908    357.00189    68230.709    2816.6345 
   35000   -13082.611    179.89106    -12902.72   -12780.311    348.01146    68230.709    2874.3872 
   36000   -13084.548     178.8835   -12905.665    -12793.78    346.06227    68230.709    2627.2404 
   37000   -13081.793    182.44822   -12899.345   -12773.951    352.95845    68230.709    2944.4591 
   38000   -13084.692    182.68733   -12902.005   -12789.697    353.42103    68230.709    2637.1803 
   39000   -13084.503    178.87995   -12905.623   -12794.996    346.05539    68230.709    2597.7189 
   40000   -13079.669    178.87957   -12900.789   -12767.071    346.05465    68230.709    3139.9389 
   41000   -13081.029    177.51242   -12903.517   -12778.136    343.40982    68230.709    2944.1757 
   42000   -13084.848    178.51524   -12906.333   -12796.544    345.34983    68230.709    2578.0339 
   43000   -13082.042    182.15799   -12899.884   -12773.579    352.39699    68230.709    2965.8451 
   44000   -13085.323    180.69465   -12904.628   -12795.682    349.56606    68230.709    2558.2572 
   45000   -13086.417    177.08271   -12909.334   -12810.163    342.57851    68230.709    2328.7104 
   46000   -13081.903    179.49011   -12902.413   -12777.496    347.23579    68230.709    2933.2475 
   47000   -13083.332     183.0978   -12900.234   -12781.787     354.2151    68230.709    2781.3596 
   48000   -13082.576    174.24806   -12908.328   -12791.416    337.09469    68230.709    2745.2938 
   49000   -13080.438    178.63703     -12901.8   -12771.329    345.58545    68230.709     3063.695 
   50000   -13082.755    180.88838   -12901.866   -12781.847    349.94083    68230.709    2818.2671 
   51000   -13086.848      177.393   -12909.455   -12810.693    343.17879    68230.709    2319.1167 
   52000   -13081.285    178.11075   -12903.174   -12779.752    344.56732    68230.709    2898.1667 
   53000   -13084.021    182.56906   -12901.451   -12787.596    353.19223    68230.709    2673.5249 
   54000   -13081.384    176.54673   -12904.838   -12782.017    341.54161    68230.709    2884.0393 
   55000    -13081.55    175.61458   -12905.935   -12783.415    339.73831    68230.709    2876.9944 
   56000   -13082.806    183.52552    -12899.28    -12776.17    355.04256    68230.709    2890.8504 
   57000   -13083.274    177.74418    -12905.53   -12788.877    343.85817    68230.709    2739.2195 
   58000   -13082.786    173.38546     -12909.4   -12797.595    335.42593    68230.709    2625.3891 
   59000   -13083.717    183.49101   -12900.226   -12783.636     354.9758    68230.709    2737.7298 
   60000   -13084.387    182.13303   -12902.254   -12791.245     352.3487    68230.709    2606.6639 
Loop time of 4153.27 on 28 procs for 60000 steps with 4000 atoms

Performance: 1.248 ns/day, 19.228 hours/ns, 14.446 timesteps/s
96.3% CPU use with 28 MPI tasks x no OpenMP threads

MPI task timing breakdown:
Section |  min time  |  avg time  |  max time  |%varavg| %total
---------------------------------------------------------------
Pair    | 889.1      | 1317.3     | 1423.2     | 371.3 | 31.72
Neigh   | 0.048943   | 0.055728   | 0.062342   |   1.6 |  0.00
Comm    | 1409.8     | 1558       | 1960.5     | 340.2 | 37.51
Output  | 4.0545     | 4.1222     | 4.1695     |   1.0 |  0.10
Modify  | 360.92     | 623.56     | 928.5      | 384.3 | 15.01
Other   |            | 650.3      |            |       | 15.66

Nlocal:    142.857 ave 162 max 119 min
Histogram: 3 2 1 2 1 6 2 6 2 3
Nghost:    1906.5 ave 2037 max 1825 min
Histogram: 12 0 4 4 0 0 0 0 0 8
Neighs:    11349.8 ave 13567 max 9335 min
Histogram: 2 3 3 2 3 6 5 1 1 2

Total # of neighbors = 317793
Ave neighs/atom = 79.4483
Neighbor list builds = 128
Dangerous builds = 0
All done
Total wall time: 1:09:14
