fcc Si                                  
   3.70000000000000     
     0.445088    0.445088    0.000000
     0.000000    0.445088    0.445088
     0.445088    0.000000    0.445088
   Si
     1
Direct
  0.000000  0.000000  0.000000
 
   20   20   20
 -.17968621372E+01 -.14114839750E+01 -.35910132288E+00 0.10817732506E+01 0.25494458262E+01
 0.37227920478E+01 0.44280277766E+01 0.46799588815E+01 0.46426909802E+01 0.45344732773E+01
 0.44889464946E+01 0.45344732773E+01 0.46426909802E+01 0.46799588815E+01 0.44280277766E+01
 0.37227920478E+01 0.25494458262E+01 0.10817732506E+01 -.35910132288E+00 -.14114839750E+01
 -.14114839750E+01 -.69325213777E+00 0.54878213185E+00 0.19891163891E+01 0.32820676956E+01
 0.41806122136E+01 0.46115973978E+01 0.46743239325E+01 0.45702862676E+01 0.44852554809E+01
 0.44852588599E+01 0.45702994796E+01 0.46743445242E+01 0.46116092384E+01 0.41806065378E+01
 0.32820734368E+01 0.19891837324E+01 0.54892374177E+00 -.69309818598E+00 -.14114167887E+01
 -.35910132288E+00 0.54878213185E+00 0.17794456970E+01 0.30122713535E+01 0.39702786289E+01
 0.45128933675E+01 0.46674864886E+01 0.45900737220E+01 0.44754668909E+01 0.44292982332E+01
 0.44754750088E+01 0.45900965876E+01 0.46675117232E+01 0.45128958442E+01 0.39702700310E+01
 0.30123245340E+01 0.17796278079E+01 0.54905425741E+00 -.35889274052E+00 -.69309818598E+00
 0.10817732506E+01 0.19891163891E+01 0.30122713535E+01 0.38880247551E+01 0.44428585127E+01
 0.46451392523E+01 0.45951973668E+01 0.44631214428E+01 0.43757096318E+01 0.43757059922E+01
 0.44631223248E+01 0.45952137368E+01 0.46451525292E+01 0.44428514896E+01 0.38880400140E+01
 0.30123990680E+01 0.19893857160E+01 0.10820690893E+01 0.54905425741E+00 0.54892374177E+00
 0.25494458262E+01 0.32820676956E+01 0.39702786289E+01 0.44428585127E+01 0.46338460439E+01
 0.45938319036E+01 0.44529338880E+01 0.43337120688E+01 0.42883177932E+01 0.43336905802E+01
 0.44529206692E+01 0.45938383779E+01 0.46338500941E+01 0.44428578877E+01 0.39703322354E+01
 0.32822408798E+01 0.25497069499E+01 0.19893857160E+01 0.17796278079E+01 0.19891837324E+01
 0.37227920478E+01 0.41806122136E+01 0.45128933675E+01 0.46451392523E+01 0.45938319036E+01
 0.44489946777E+01 0.43106690495E+01 0.42287746766E+01 0.42287556596E+01 0.43106346859E+01
 0.44489797949E+01 0.45938382485E+01 0.46451448632E+01 0.45129063287E+01 0.41806813127E+01
 0.37229408245E+01 0.32822408798E+01 0.30123990680E+01 0.30123245340E+01 0.32820734368E+01
 0.44280277766E+01 0.46115973978E+01 0.46674864886E+01 0.45951973668E+01 0.44529338880E+01
 0.43106690495E+01 0.42076695615E+01 0.41701196814E+01 0.42076426198E+01 0.43106450642E+01
 0.44529344693E+01 0.45952124382E+01 0.46674974572E+01 0.46116108066E+01 0.44280712251E+01
 0.41806813127E+01 0.39703322354E+01 0.38880400140E+01 0.39702700310E+01 0.41806065378E+01
 0.46799588815E+01 0.46743239325E+01 0.45900737220E+01 0.44631214428E+01 0.43337120688E+01
 0.42287746766E+01 0.41701196814E+01 0.41701134256E+01 0.42287653338E+01 0.43337169140E+01
 0.44631417589E+01 0.45900926564E+01 0.46743287838E+01 0.46799546641E+01 0.46116108066E+01
 0.45129063287E+01 0.44428578877E+01 0.44428514896E+01 0.45128958442E+01 0.46116092384E+01
 0.46426909802E+01 0.45702862676E+01 0.44754668909E+01 0.43757096318E+01 0.42883177932E+01
 0.42287556596E+01 0.42076426198E+01 0.42287653338E+01 0.42883384988E+01 0.43757372331E+01
 0.44754914953E+01 0.45702955776E+01 0.46426833664E+01 0.46743287838E+01 0.46674974572E+01
 0.46451448632E+01 0.46338500941E+01 0.46451525292E+01 0.46675117232E+01 0.46743445242E+01
 0.45344732773E+01 0.44852554809E+01 0.44292982332E+01 0.43757059922E+01 0.43336905802E+01
 0.43106346859E+01 0.43106450642E+01 0.43337169140E+01 0.43757372331E+01 0.44293228755E+01
 0.44852683207E+01 0.45344756200E+01 0.45702955776E+01 0.45900926564E+01 0.45952124382E+01
 0.45938382485E+01 0.45938383779E+01 0.45952137368E+01 0.45900965876E+01 0.45702994796E+01
 0.44889464946E+01 0.44852588599E+01 0.44754750088E+01 0.44631223248E+01 0.44529206692E+01
 0.44489797949E+01 0.44529344693E+01 0.44631417589E+01 0.44754914953E+01 0.44852683207E+01
 0.44889523387E+01 0.44852683207E+01 0.44754914953E+01 0.44631417589E+01 0.44529344693E+01
 0.44489797949E+01 0.44529206692E+01 0.44631223248E+01 0.44754750088E+01 0.44852588599E+01
 0.45344732773E+01 0.45702994796E+01 0.45900965876E+01 0.45952137368E+01 0.45938383779E+01
 0.45938382485E+01 0.45952124382E+01 0.45900926564E+01 0.45702955776E+01 0.45344756200E+01
 0.44852683207E+01 0.44293228755E+01 0.43757372331E+01 0.43337169140E+01 0.43106450642E+01
 0.43106346859E+01 0.43336905802E+01 0.43757059922E+01 0.44292982332E+01 0.44852554809E+01
 0.46426909802E+01 0.46743445242E+01 0.46675117232E+01 0.46451525292E+01 0.46338500941E+01
 0.46451448632E+01 0.46674974572E+01 0.46743287838E+01 0.46426833664E+01 0.45702955776E+01
 0.44754914953E+01 0.43757372331E+01 0.42883384988E+01 0.42287653338E+01 0.42076426198E+01
 0.42287556596E+01 0.42883177932E+01 0.43757096318E+01 0.44754668909E+01 0.45702862676E+01
 0.46799588815E+01 0.46116092384E+01 0.45128958442E+01 0.44428514896E+01 0.44428578877E+01
 0.45129063287E+01 0.46116108066E+01 0.46799546641E+01 0.46743287838E+01 0.45900926564E+01
 0.44631417589E+01 0.43337169140E+01 0.42287653338E+01 0.41701134256E+01 0.41701196814E+01
 0.42287746766E+01 0.43337120688E+01 0.44631214428E+01 0.45900737220E+01 0.46743239325E+01
 0.44280277766E+01 0.41806065378E+01 0.39702700310E+01 0.38880400140E+01 0.39703322354E+01
 0.41806813127E+01 0.44280712251E+01 0.46116108066E+01 0.46674974572E+01 0.45952124382E+01
 0.44529344693E+01 0.43106450642E+01 0.42076426198E+01 0.41701196814E+01 0.42076695615E+01
 0.43106690495E+01 0.44529338880E+01 0.45951973668E+01 0.46674864886E+01 0.46115973978E+01
 0.37227920478E+01 0.32820734368E+01 0.30123245340E+01 0.30123990680E+01 0.32822408798E+01
 0.37229408245E+01 0.41806813127E+01 0.45129063287E+01 0.46451448632E+01 0.45938382485E+01
 0.44489797949E+01 0.43106346859E+01 0.42287556596E+01 0.42287746766E+01 0.43106690495E+01
 0.44489946777E+01 0.45938319036E+01 0.46451392523E+01 0.45128933675E+01 0.41806122136E+01
 0.25494458262E+01 0.19891837324E+01 0.17796278079E+01 0.19893857160E+01 0.25497069499E+01
 0.32822408798E+01 0.39703322354E+01 0.44428578877E+01 0.46338500941E+01 0.45938383779E+01
 0.44529206692E+01 0.43336905802E+01 0.42883177932E+01 0.43337120688E+01 0.44529338880E+01
 0.45938319036E+01 0.46338460439E+01 0.44428585127E+01 0.39702786289E+01 0.32820676956E+01
 0.10817732506E+01 0.54892374177E+00 0.54905425741E+00 0.10820690893E+01 0.19893857160E+01
 0.30123990680E+01 0.38880400140E+01 0.44428514896E+01 0.46451525292E+01 0.45952137368E+01
 0.44631223248E+01 0.43757059922E+01 0.43757096318E+01 0.44631214428E+01 0.45951973668E+01
 0.46451392523E+01 0.44428585127E+01 0.38880247551E+01 0.30122713535E+01 0.19891163891E+01
 -.35910132288E+00 -.69309818598E+00 -.35889274052E+00 0.54905425741E+00 0.17796278079E+01
 0.30123245340E+01 0.39702700310E+01 0.45128958442E+01 0.46675117232E+01 0.45900965876E+01
 0.44754750088E+01 0.44292982332E+01 0.44754668909E+01 0.45900737220E+01 0.46674864886E+01
 0.45128933675E+01 0.39702786289E+01 0.30122713535E+01 0.17794456970E+01 0.54878213185E+00
 -.14114839750E+01 -.14114167887E+01 -.69309818598E+00 0.54892374177E+00 0.19891837324E+01
 0.32820734368E+01 0.41806065378E+01 0.46116092384E+01 0.46743445242E+01 0.45702994796E+01
 0.44852588599E+01 0.44852554809E+01 0.45702862676E+01 0.46743239325E+01 0.46115973978E+01
 0.41806122136E+01 0.32820676956E+01 0.19891163891E+01 0.54878213185E+00 -.69325213777E+00
 -.14116435487E+01 -.69309397456E+00 0.54910422384E+00 0.19893620195E+01 0.32821300332E+01
 0.41805643464E+01 0.46115563990E+01 0.46743239949E+01 0.45702930455E+01 0.44852503951E+01
 0.44852585591E+01 0.45703085266E+01 0.46743450495E+01 0.46116126274E+01 0.41806667503E+01
 0.32822022692E+01 0.19892721413E+01 0.54881161637E+00 -.69343947178E+00 -.14117986397E+01
 -.69309397456E+00 0.26698205012E+00 0.15718615178E+01 0.28855745368E+01 0.39159646576E+01
 0.45119205732E+01 0.46974792296E+01 0.46320478058E+01 0.45188330623E+01 0.44726701770E+01
 0.45188497862E+01 0.46320675204E+01 0.46975182110E+01 0.45120177901E+01 0.39160972866E+01
 0.28856164553E+01 0.15716865943E+01 0.26663450100E+00 -.69338092465E+00 -.10460596798E+01
 0.54910422384E+00 0.15718615178E+01 0.27354194981E+01 0.37478755549E+01 0.44121832128E+01
 0.46848741925E+01 0.46676386020E+01 0.45421978195E+01 0.44549537855E+01 0.44549627686E+01
 0.45422104322E+01 0.46676471198E+01 0.46849162865E+01 0.44122933902E+01 0.37479953581E+01
 0.27354125884E+01 0.15716600705E+01 0.54882570384E+00 -.49047009475E-01 -.48916195455E-01
 0.19893620195E+01 0.28855745368E+01 0.37478755549E+01 0.43709423621E+01 0.46670324148E+01
 0.46819567787E+01 0.45560959702E+01 0.44375026935E+01 0.43916247754E+01 0.44375095314E+01
 0.45560875453E+01 0.46819434557E+01 0.46670654788E+01 0.43710402276E+01 0.37479646629E+01
 0.28855523879E+01 0.19892220186E+01 0.13122365569E+01 0.10603770981E+01 0.13123725206E+01
 0.32821300332E+01 0.39159646576E+01 0.44121832128E+01 0.46670324148E+01 0.46850980763E+01
 0.45623214831E+01 0.44250023407E+01 0.43414329279E+01 0.43414360416E+01 0.44249970891E+01
 0.45622929886E+01 0.46850720521E+01 0.46670548518E+01 0.44122585374E+01 0.39160349345E+01
 0.32821373143E+01 0.26923036122E+01 0.23369946970E+01 0.23370222505E+01 0.26923471690E+01
 0.41805643464E+01 0.45119205732E+01 0.46848741925E+01 0.46819567787E+01 0.45623214831E+01
 0.44204895613E+01 0.43138474910E+01 0.42743893778E+01 0.43138504684E+01 0.44204794283E+01
 0.45622942263E+01 0.46819375635E+01 0.46848930430E+01 0.45119778371E+01 0.41806272647E+01
 0.37865474341E+01 0.34680070384E+01 0.33458857497E+01 0.34679955101E+01 0.37865095812E+01
 0.46115563990E+01 0.46974792296E+01 0.46676386020E+01 0.45560959702E+01 0.44250023407E+01
 0.43138474910E+01 0.42503807513E+01 0.42503868595E+01 0.43138588397E+01 0.44250080671E+01
 0.45560939291E+01 0.46676404861E+01 0.46974973733E+01 0.46115918649E+01 0.44329017470E+01
 0.42342863226E+01 0.41047914652E+01 0.41047784352E+01 0.42342524164E+01 0.44328591373E+01
 0.46743239949E+01 0.46320478058E+01 0.45421978195E+01 0.44375026935E+01 0.43414329279E+01
 0.42743893778E+01 0.42503868595E+01 0.42744073067E+01 0.43414636505E+01 0.44375377383E+01
 0.45422270357E+01 0.46320641245E+01 0.46743310108E+01 0.46500471937E+01 0.45775292537E+01
 0.45023390997E+01 0.44708123901E+01 0.45023293805E+01 0.45775188954E+01 0.46500411807E+01
 0.45702930455E+01 0.45188330623E+01 0.44549537855E+01 0.43916247754E+01 0.43414360416E+01
 0.43138504684E+01 0.43138588397E+01 0.43414636505E+01 0.43916716371E+01 0.44550085895E+01
 0.45188762140E+01 0.45703091909E+01 0.45986121385E+01 0.45965604998E+01 0.45744197484E+01
 0.45545354722E+01 0.45545398315E+01 0.45744323487E+01 0.45965769062E+01 0.45986201304E+01
 0.44852503951E+01 0.44726701770E+01 0.44549627686E+01 0.44375095314E+01 0.44249970891E+01
 0.44204794283E+01 0.44250080671E+01 0.44375377383E+01 0.44550085895E+01 0.44727199671E+01
 0.44852858514E+01 0.44883933223E+01 0.44810199365E+01 0.44668001538E+01 0.44526654379E+01
 0.44466708568E+01 0.44526776457E+01 0.44668179193E+01 0.44810302062E+01 0.44883823876E+01
 0.44852585591E+01 0.45188497862E+01 0.45422104322E+01 0.45560875453E+01 0.45622929886E+01
 0.45622942263E+01 0.45560939291E+01 0.45422270357E+01 0.45188762140E+01 0.44852858514E+01
 0.44428109540E+01 0.43953355108E+01 0.43491147718E+01 0.43118794348E+01 0.42909809474E+01
 0.42909799139E+01 0.43118772755E+01 0.43491109175E+01 0.43953261169E+01 0.44427919669E+01
 0.45703085266E+01 0.46320675204E+01 0.46676471198E+01 0.46819434557E+01 0.46850720521E+01
 0.46819375635E+01 0.46676404861E+01 0.46320641245E+01 0.45703091909E+01 0.44883933223E+01
 0.43953355108E+01 0.43029799274E+01 0.42244714402E+01 0.41717272297E+01 0.41531274613E+01
 0.41717096558E+01 0.42244490220E+01 0.43029648044E+01 0.43953289052E+01 0.44883899789E+01
 0.46743450495E+01 0.46975182110E+01 0.46849162865E+01 0.46670654788E+01 0.46670548518E+01
 0.46848930430E+01 0.46974973733E+01 0.46743310108E+01 0.45986121385E+01 0.44810199365E+01
 0.43491147718E+01 0.42244714402E+01 0.41273507890E+01 0.40741669538E+01 0.40741537470E+01
 0.41273232075E+01 0.42244538056E+01 0.43491168093E+01 0.44810336609E+01 0.45986263830E+01
 0.46116126274E+01 0.45120177901E+01 0.44122933902E+01 0.43710402276E+01 0.44122585374E+01
 0.45119778371E+01 0.46115918649E+01 0.46500471937E+01 0.45965604998E+01 0.44668001538E+01
 0.43118794348E+01 0.41717272297E+01 0.40741669538E+01 0.40392030269E+01 0.40741507501E+01
 0.41717178424E+01 0.43118918794E+01 0.44668240509E+01 0.45965752618E+01 0.46500547214E+01
 0.41806667503E+01 0.39160972866E+01 0.37479953581E+01 0.37479646629E+01 0.39160349345E+01
 0.41806272647E+01 0.44329017470E+01 0.45775292537E+01 0.45744197484E+01 0.44526654379E+01
 0.42909809474E+01 0.41531274613E+01 0.40741537470E+01 0.40741507501E+01 0.41531298297E+01
 0.42910026656E+01 0.44526942009E+01 0.45744278065E+01 0.45775151183E+01 0.44328997922E+01
 0.32822022692E+01 0.28856164553E+01 0.27354125884E+01 0.28855523879E+01 0.32821373143E+01
 0.37865474341E+01 0.42342863226E+01 0.45023390997E+01 0.45545354722E+01 0.44466708568E+01
 0.42909799139E+01 0.41717096558E+01 0.41273232075E+01 0.41717178424E+01 0.42910026656E+01
 0.44466977482E+01 0.45545368444E+01 0.45023036155E+01 0.42342475687E+01 0.37865570875E+01
 0.19892721413E+01 0.15716865943E+01 0.15716600705E+01 0.19892220186E+01 0.26923036122E+01
 0.34680070384E+01 0.41047914652E+01 0.44708123901E+01 0.45545398315E+01 0.44526776457E+01
 0.43118772755E+01 0.42244490220E+01 0.42244538056E+01 0.43118918794E+01 0.44526942009E+01
 0.45545368444E+01 0.44707725185E+01 0.41047300652E+01 0.34679696745E+01 0.26923210976E+01
 0.54881161637E+00 0.26663450100E+00 0.54882570384E+00 0.13122365569E+01 0.23369946970E+01
 0.33458857497E+01 0.41047784352E+01 0.45023293805E+01 0.45744323487E+01 0.44668179193E+01
 0.43491109175E+01 0.43029648044E+01 0.43491168093E+01 0.44668240509E+01 0.45744278065E+01
 0.45023036155E+01 0.41047300652E+01 0.33458270924E+01 0.23369430748E+01 0.13122037353E+01
 -.69343947178E+00 -.69338092465E+00 -.49047009475E-01 0.10603770981E+01 0.23370222505E+01
 0.34679955101E+01 0.42342524164E+01 0.45775188954E+01 0.45965769062E+01 0.44810302062E+01
 0.43953261169E+01 0.43953289052E+01 0.44810336609E+01 0.45965752618E+01 0.45775151183E+01
 0.42342475687E+01 0.34679696745E+01 0.23369430748E+01 0.10602417499E+01 -.49184183395E-01
 -.14117986397E+01 -.10460596798E+01 -.48916195455E-01 0.13123725206E+01 0.26923471690E+01
 0.37865095812E+01 0.44328591373E+01 0.46500411807E+01 0.45986201304E+01 0.44883823876E+01
 0.44427919669E+01 0.44883899789E+01 0.45986263830E+01 0.46500547214E+01 0.44328997922E+01
 0.37865570875E+01 0.26923210976E+01 0.13122037353E+01 -.49184183395E-01 -.10462675358E+01
 -.35933678030E+00 0.54874654985E+00 0.17795872379E+01 0.30124542805E+01 0.39703901041E+01
 0.45129230970E+01 0.46674866511E+01 0.45900785793E+01 0.44754720446E+01 0.44292962213E+01
 0.44754746592E+01 0.45901031248E+01 0.46675168770E+01 0.45129052479E+01 0.39703190836E+01
 0.30124335144E+01 0.17797392830E+01 0.54904920685E+00 -.35908391584E+00 -.69340094509E+00
 0.54874654985E+00 0.15717360883E+01 0.27355438952E+01 0.37480805638E+01 0.44123047116E+01
 0.46848910123E+01 0.46676278814E+01 0.45422101358E+01 0.44549735491E+01 0.44549671535E+01
 0.45422101314E+01 0.46676540289E+01 0.46849141640E+01 0.44122787628E+01 0.37480252924E+01
 0.27355547686E+01 0.15718750538E+01 0.54894096129E+00 -.49190600349E-01 -.49282847050E-01
 0.17795872379E+01 0.27355438952E+01 0.36615519180E+01 0.43398963828E+01 0.46749905099E+01
 0.47108962587E+01 0.45914505092E+01 0.44732226498E+01 0.44271883140E+01 0.44731957764E+01
 0.45914321570E+01 0.47109041373E+01 0.46749961436E+01 0.43398681075E+01 0.36615075372E+01
 0.27355384942E+01 0.17796387268E+01 0.10601556258E+01 0.79280712275E+00 0.10600981590E+01
 0.30124542805E+01 0.37480805638E+01 0.43398963828E+01 0.46674389748E+01 0.47282761887E+01
 0.46211697464E+01 0.44850721104E+01 0.44007884492E+01 0.44007637823E+01 0.44850185173E+01
 0.46211268904E+01 0.47282605139E+01 0.46674306142E+01 0.43398667852E+01 0.37480251585E+01
 0.30123954151E+01 0.23368326607E+01 0.19324466434E+01 0.19324595169E+01 0.23368719763E+01
 0.39703901041E+01 0.44123047116E+01 0.46749905099E+01 0.47282761887E+01 0.46309587333E+01
 0.44909782740E+01 0.43824436106E+01 0.43418159551E+01 0.43823960721E+01 0.44909091840E+01
 0.46309023028E+01 0.47282492425E+01 0.46749763022E+01 0.44122682000E+01 0.39703102988E+01
 0.34678963258E+01 0.30700080827E+01 0.29187742702E+01 0.30700813973E+01 0.34679989223E+01
 0.45129230970E+01 0.46848910123E+01 0.47108962587E+01 0.46211697464E+01 0.44909782740E+01
 0.43759389635E+01 0.43090278720E+01 0.43090118526E+01 0.43758947815E+01 0.44909206207E+01
 0.46211222661E+01 0.47108731714E+01 0.46848749915E+01 0.45128764522E+01 0.42342185107E+01
 0.39468045781E+01 0.37650009518E+01 0.37650462883E+01 0.39469069911E+01 0.42343113088E+01
 0.46674866511E+01 0.46676278814E+01 0.45914505092E+01 0.44850721104E+01 0.43824436106E+01
 0.43090278720E+01 0.42824625473E+01 0.43090290448E+01 0.43824326722E+01 0.44850462730E+01
 0.45914248956E+01 0.46676144641E+01 0.46674689145E+01 0.45774946105E+01 0.44327638945E+01
 0.43012426936E+01 0.42484547406E+01 0.43013064670E+01 0.44328437818E+01 0.45775450526E+01
 0.45900785793E+01 0.45422101358E+01 0.44732226498E+01 0.44007884492E+01 0.43418159551E+01
 0.43090118526E+01 0.43090290448E+01 0.43418514463E+01 0.44008124544E+01 0.44732267124E+01
 0.45422065519E+01 0.45900739484E+01 0.45965505016E+01 0.45566443337E+01 0.44946485862E+01
 0.44493387680E+01 0.44493602549E+01 0.44946956889E+01 0.45566835595E+01 0.45965668024E+01
 0.44754720446E+01 0.44549735491E+01 0.44271883140E+01 0.44007637823E+01 0.43823960721E+01
 0.43758947815E+01 0.43824326722E+01 0.44008124544E+01 0.44272247628E+01 0.44549929887E+01
 0.44754835680E+01 0.44810266491E+01 0.44688663490E+01 0.44421241773E+01 0.44141855397E+01
 0.44023009998E+01 0.44142024952E+01 0.44421424317E+01 0.44688728787E+01 0.44810212005E+01
 0.44292962213E+01 0.44549671535E+01 0.44731957764E+01 0.44850185173E+01 0.44909091840E+01
 0.44909206207E+01 0.44850462730E+01 0.44732267124E+01 0.44549929887E+01 0.44293180072E+01
 0.43953498868E+01 0.43541288004E+01 0.43103476087E+01 0.42724938994E+01 0.42502835158E+01
 0.42502852933E+01 0.42724942125E+01 0.43103383148E+01 0.43541097278E+01 0.43953280761E+01
 0.44754746592E+01 0.45422101314E+01 0.45914321570E+01 0.46211268904E+01 0.46309023028E+01
 0.46211222661E+01 0.45914248956E+01 0.45422065519E+01 0.44754835680E+01 0.43953498868E+01
 0.43084266043E+01 0.42236964911E+01 0.41517578001E+01 0.41031769162E+01 0.40859753119E+01
 0.41031710209E+01 0.41517411735E+01 0.42236675927E+01 0.43083939223E+01 0.43953258161E+01
 0.45901031248E+01 0.46676540289E+01 0.47109041373E+01 0.47282605139E+01 0.47282492425E+01
 0.47108731714E+01 0.46676144641E+01 0.45900739484E+01 0.44810266491E+01 0.43541288004E+01
 0.42236964911E+01 0.41058841604E+01 0.40164891892E+01 0.39682188978E+01 0.39682153609E+01
 0.40164749883E+01 0.41058552641E+01 0.42236597394E+01 0.43541019896E+01 0.44810276638E+01
 0.46675168770E+01 0.46849141640E+01 0.46749961436E+01 0.46674306142E+01 0.46749763022E+01
 0.46848749915E+01 0.46674689145E+01 0.45965505016E+01 0.44688663490E+01 0.43103476087E+01
 0.41517578001E+01 0.40164891892E+01 0.39254669798E+01 0.38933594292E+01 0.39254593996E+01
 0.40164686403E+01 0.41517273778E+01 0.43103253790E+01 0.44688728787E+01 0.45965863319E+01
 0.45129052479E+01 0.44122787628E+01 0.43398681075E+01 0.43398667852E+01 0.44122682000E+01
 0.45128764522E+01 0.45774946105E+01 0.45566443337E+01 0.44421241773E+01 0.42724938994E+01
 0.41031769162E+01 0.39682188978E+01 0.38933594292E+01 0.38933567674E+01 0.39682085329E+01
 0.41031581570E+01 0.42724802988E+01 0.44421330984E+01 0.45566782023E+01 0.45775365687E+01
 0.39703190836E+01 0.37480252924E+01 0.36615075372E+01 0.37480251585E+01 0.39703102988E+01
 0.42342185107E+01 0.44327638945E+01 0.44946485862E+01 0.44141855397E+01 0.42502835158E+01
 0.40859753119E+01 0.39682153609E+01 0.39254593996E+01 0.39682085329E+01 0.40859646468E+01
 0.42502771777E+01 0.44141927937E+01 0.44946723967E+01 0.44327948916E+01 0.42342416958E+01
 0.30124335144E+01 0.27355547686E+01 0.27355384942E+01 0.30123954151E+01 0.34678963258E+01
 0.39468045781E+01 0.43012426936E+01 0.44493387680E+01 0.44023009998E+01 0.42502852933E+01
 0.41031710209E+01 0.40164749883E+01 0.40164686403E+01 0.41031581570E+01 0.42502771777E+01
 0.44023009194E+01 0.44493441309E+01 0.43012539601E+01 0.39468285509E+01 0.34679347005E+01
 0.17797392830E+01 0.15718750538E+01 0.17796387268E+01 0.23368326607E+01 0.30700080827E+01
 0.37650009518E+01 0.42484547406E+01 0.44493602549E+01 0.44142024952E+01 0.42724942125E+01
 0.41517411735E+01 0.41058552641E+01 0.41517273778E+01 0.42724802988E+01 0.44141927937E+01
 0.44493441309E+01 0.42484327776E+01 0.37650075951E+01 0.30700813973E+01 0.23369580138E+01
 0.54904920685E+00 0.54894096129E+00 0.10601556258E+01 0.19324466434E+01 0.29187742702E+01
 0.37650462883E+01 0.43013064670E+01 0.44946956889E+01 0.44421424317E+01 0.43103383148E+01
 0.42236675927E+01 0.42236597394E+01 0.43103253790E+01 0.44421330984E+01 0.44946723967E+01
 0.43012539601E+01 0.37650075951E+01 0.29188380139E+01 0.19326466836E+01 0.10603949403E+01
 -.35908391584E+00 -.49190600349E-01 0.79280712275E+00 0.19324595169E+01 0.30700813973E+01
 0.39469069911E+01 0.44328437818E+01 0.45566835595E+01 0.44688728787E+01 0.43541097278E+01
 0.43083939223E+01 0.43541019896E+01 0.44688728787E+01 0.45566782023E+01 0.44327948916E+01
 0.39468285509E+01 0.30700813973E+01 0.19326466836E+01 0.79313983902E+00 -.48922612408E-01
 -.69340094509E+00 -.49282847050E-01 0.10600981590E+01 0.23368719763E+01 0.34679989223E+01
 0.42343113088E+01 0.45775450526E+01 0.45965668024E+01 0.44810212005E+01 0.43953280761E+01
 0.43953258161E+01 0.44810276638E+01 0.45965863319E+01 0.45775365687E+01 0.42342416958E+01
 0.34679347005E+01 0.23369580138E+01 0.10603949403E+01 -.48922612408E-01 -.69323755541E+00
 0.10818847614E+01 0.19890909350E+01 0.30121446693E+01 0.38879134256E+01 0.44428376421E+01
 0.46451834473E+01 0.45952367797E+01 0.44631256277E+01 0.43756993879E+01 0.43757034709E+01
 0.44631227175E+01 0.45952094469E+01 0.46451555585E+01 0.44428693914E+01 0.38880445802E+01
 0.30123519966E+01 0.19893035835E+01 0.10820350343E+01 0.54913579636E+00 0.54908270086E+00
 0.19890909350E+01 0.28853656879E+01 0.37478221686E+01 0.43710064210E+01 0.46671156230E+01
 0.46820032921E+01 0.45561158255E+01 0.44375207837E+01 0.43916417973E+01 0.44375161298E+01
 0.45560882388E+01 0.46819464359E+01 0.46670629747E+01 0.43710256941E+01 0.37479695730E+01
 0.28856348815E+01 0.19893925600E+01 0.13124043492E+01 0.10604045330E+01 0.13122040663E+01
 0.30121446693E+01 0.37478221686E+01 0.43398253720E+01 0.46675099393E+01 0.47283562204E+01
 0.46211899818E+01 0.44850629757E+01 0.44007967746E+01 0.44007870119E+01 0.44850302529E+01
 0.46211264977E+01 0.47282629224E+01 0.46674249370E+01 0.43398306105E+01 0.37479903141E+01
 0.30124560907E+01 0.23370413674E+01 0.19327078246E+01 0.19325756729E+01 0.23367284732E+01
 0.38879134256E+01 0.43710064210E+01 0.46675099393E+01 0.47423881135E+01 0.46541951897E+01
 0.45152427918E+01 0.44061815851E+01 0.43652108690E+01 0.44061440046E+01 0.45151774612E+01
 0.46541028775E+01 0.47422696627E+01 0.46674065714E+01 0.43710090476E+01 0.38880848553E+01
 0.33458770434E+01 0.29189421971E+01 0.27569508770E+01 0.29187226225E+01 0.33455949102E+01
 0.44428376421E+01 0.46671156230E+01 0.47283562204E+01 0.46541951897E+01 0.45256215321E+01
 0.44088831936E+01 0.43402961125E+01 0.43402699107E+01 0.44088205667E+01 0.45255445102E+01
 0.46541006222E+01 0.47282377510E+01 0.46670141831E+01 0.44428359217E+01 0.41047532121E+01
 0.37650849928E+01 0.35525767298E+01 0.35524908342E+01 0.37649018914E+01 0.41046207857E+01
 0.46451834473E+01 0.46820032921E+01 0.46211899818E+01 0.45152427918E+01 0.44088831936E+01
 0.43314350032E+01 0.43031861854E+01 0.43313908570E+01 0.44088265641E+01 0.45151899368E+01
 0.46211200225E+01 0.46819035482E+01 0.46450921119E+01 0.45022850286E+01 0.43012588146E+01
 0.41264497465E+01 0.40573440441E+01 0.41263773353E+01 0.43011957554E+01 0.45023039464E+01
 0.45952367797E+01 0.45561158255E+01 0.44850629757E+01 0.44061815851E+01 0.43402961125E+01
 0.43031861854E+01 0.43031700775E+01 0.43402659888E+01 0.44061637605E+01 0.44850517623E+01
 0.45560778215E+01 0.45951615178E+01 0.45743706542E+01 0.44946245327E+01 0.43931222271E+01
 0.43232097086E+01 0.43232012149E+01 0.43931191731E+01 0.44946632620E+01 0.45744486062E+01
 0.44631256277E+01 0.44375207837E+01 0.44007967746E+01 0.43652108690E+01 0.43402699107E+01
 0.43313908570E+01 0.43402659888E+01 0.43652187222E+01 0.44008206520E+01 0.44375391008E+01
 0.44631104495E+01 0.44667687881E+01 0.44420885508E+01 0.43941465542E+01 0.43466887345E+01
 0.43269290250E+01 0.43467038540E+01 0.43941857934E+01 0.44421475918E+01 0.44668201633E+01
 0.43756993879E+01 0.43916417973E+01 0.44007870119E+01 0.44061440046E+01 0.44088205667E+01
 0.44088265641E+01 0.44061637605E+01 0.44008206520E+01 0.43916782875E+01 0.43757202322E+01
 0.43491015737E+01 0.43103154137E+01 0.42636841756E+01 0.42200410291E+01 0.41929939917E+01
 0.41929983837E+01 0.42200557926E+01 0.42637087021E+01 0.43103382707E+01 0.43491060401E+01
 0.43757034709E+01 0.44375161298E+01 0.44850302529E+01 0.45151774612E+01 0.45255445102E+01
 0.45151899368E+01 0.44850517623E+01 0.44375391008E+01 0.43757202322E+01 0.43029740786E+01
 0.42236705935E+01 0.41445113196E+01 0.40752172047E+01 0.40271735453E+01 0.40099057344E+01
 0.40271634654E+01 0.40752033693E+01 0.41445006943E+01 0.42236637367E+01 0.43029651353E+01
 0.44631227175E+01 0.45560882388E+01 0.46211264977E+01 0.46541028775E+01 0.46541006222E+01
 0.46211200225E+01 0.45560778215E+01 0.44631104495E+01 0.43491015737E+01 0.42236705935E+01
 0.40987973709E+01 0.39878944416E+01 0.39043456705E+01 0.38593300255E+01 0.38593169127E+01
 0.39043137309E+01 0.39878600322E+01 0.40987758152E+01 0.42236672000E+01 0.43491102240E+01
 0.45952094469E+01 0.46819464359E+01 0.47282629224E+01 0.47422696627E+01 0.47282377510E+01
 0.46819035482E+01 0.45951615178E+01 0.44667687881E+01 0.43103154137E+01 0.41445113196E+01
 0.39878944416E+01 0.38591851077E+01 0.37745349688E+01 0.37449922571E+01 0.37745090196E+01
 0.38591479991E+01 0.39878659955E+01 0.41445046674E+01 0.43103337959E+01 0.44668080097E+01
 0.46451555585E+01 0.46670629747E+01 0.46674249370E+01 0.46674065714E+01 0.46670141831E+01
 0.46450921119E+01 0.45743706542E+01 0.44420885508E+01 0.42636841756E+01 0.40752172047E+01
 0.39043456705E+01 0.37745349688E+01 0.37044299746E+01 0.37044227774E+01 0.37745160974E+01
 0.39043245136E+01 0.40752060345E+01 0.42636954288E+01 0.44421264167E+01 0.45744286001E+01
 0.44428693914E+01 0.43710256941E+01 0.43398306105E+01 0.43710090476E+01 0.44428359217E+01
 0.45022850286E+01 0.44946245327E+01 0.43941465542E+01 0.42200410291E+01 0.40271735453E+01
 0.38593300255E+01 0.37449922571E+01 0.37044227774E+01 0.37449945705E+01 0.38593271125E+01
 0.40271647435E+01 0.42200402252E+01 0.43941667102E+01 0.44946648713E+01 0.45023297115E+01
 0.38880445802E+01 0.37479695730E+01 0.37479903141E+01 0.38880848553E+01 0.41047532121E+01
 0.43012588146E+01 0.43931222271E+01 0.43466887345E+01 0.41929939917E+01 0.40099057344E+01
 0.38593169127E+01 0.37745090196E+01 0.37745160974E+01 0.38593271125E+01 0.40099040056E+01
 0.41929862088E+01 0.43466948421E+01 0.43931448828E+01 0.43012716226E+01 0.41047328702E+01
 0.30123519966E+01 0.28856348815E+01 0.30124560907E+01 0.33458770434E+01 0.37650849928E+01
 0.41264497465E+01 0.43232097086E+01 0.43269290250E+01 0.41929983837E+01 0.40271634654E+01
 0.39043137309E+01 0.38591479991E+01 0.39043245136E+01 0.40271647435E+01 0.41929862088E+01
 0.43269278001E+01 0.43232330482E+01 0.41264608218E+01 0.37650293346E+01 0.33457564117E+01
 0.19893035835E+01 0.19893925600E+01 0.23370413674E+01 0.29189421971E+01 0.35525767298E+01
 0.40573440441E+01 0.43232012149E+01 0.43467038540E+01 0.42200557926E+01 0.40752033693E+01
 0.39878600322E+01 0.39878659955E+01 0.40752060345E+01 0.42200402252E+01 0.43466948421E+01
 0.43232330482E+01 0.40573907780E+01 0.35525520961E+01 0.29187972415E+01 0.23368502269E+01
 0.10820350343E+01 0.13124043492E+01 0.19327078246E+01 0.27569508770E+01 0.35524908342E+01
 0.41263773353E+01 0.43931191731E+01 0.43941857934E+01 0.42637087021E+01 0.41445006943E+01
 0.40987758152E+01 0.41445046674E+01 0.42636954288E+01 0.43941667102E+01 0.43931448828E+01
 0.41264608218E+01 0.35525520961E+01 0.27568858253E+01 0.19325206579E+01 0.13122368878E+01
 0.54913579636E+00 0.10604045330E+01 0.19325756729E+01 0.29187226225E+01 0.37649018914E+01
 0.43011957554E+01 0.44946632620E+01 0.44421475918E+01 0.43103382707E+01 0.42236637367E+01
 0.42236672000E+01 0.43103337959E+01 0.44421264167E+01 0.44946648713E+01 0.43012716226E+01
 0.37650293346E+01 0.29187972415E+01 0.19325206579E+01 0.10602717818E+01 0.54906625689E+00
 0.54908270086E+00 0.13122040663E+01 0.23367284732E+01 0.33455949102E+01 0.41046207857E+01
 0.45023039464E+01 0.45744486062E+01 0.44668201633E+01 0.43491060401E+01 0.43029651353E+01
 0.43491102240E+01 0.44668080097E+01 0.45744286001E+01 0.45023297115E+01 0.41047328702E+01
 0.33457564117E+01 0.23368502269E+01 0.13122368878E+01 0.54906625689E+00 0.26701147322E+00
 0.25497927588E+01 0.32822896068E+01 0.39702786289E+01 0.44427261313E+01 0.46337304746E+01
 0.45937940928E+01 0.44529338880E+01 0.43337018067E+01 0.42882990260E+01 0.43336834992E+01
 0.44529206692E+01 0.45938318666E+01 0.46338487837E+01 0.44428764015E+01 0.39703322354E+01
 0.32821439418E+01 0.25494994437E+01 0.19891920727E+01 0.17796278079E+01 0.19894317150E+01
 0.32822896068E+01 0.39160273781E+01 0.44121181108E+01 0.46669199217E+01 0.46850357388E+01
 0.45623305120E+01 0.44250340854E+01 0.43414438835E+01 0.43414292636E+01 0.44249940664E+01