       N       E                     dE             d eps       ncg     rms          rms(c)
DAV:   1    -0.308575739684E+01   -0.30858E+01   -0.13511E+03   810   0.294E+02
DAV:   2    -0.442142182492E+01   -0.13357E+01   -0.12272E+01   954   0.259E+01
DAV:   3    -0.442619605922E+01   -0.47742E-02   -0.47739E-02   786   0.145E+00
DAV:   4    -0.442619781715E+01   -0.17579E-05   -0.17586E-05   960   0.223E-02
DAV:   5    -0.442619781990E+01   -0.27464E-08   -0.17323E-09   696   0.180E-04    0.133E+00
DAV:   6    -0.438106195619E+01    0.45136E-01   -0.37246E-03   714   0.434E-01    0.807E-01
DAV:   7    -0.435412291437E+01    0.26939E-01   -0.90548E-03   732   0.677E-01    0.236E-02
DAV:   8    -0.435412383796E+01   -0.92359E-06   -0.82814E-06   744   0.276E-02
   1 F= -.43541238E+01 E0= -.43537314E+01  d E =-.784907E-03
