fcc Si                                  
   3.50000000000000     
     0.445088    0.445088    0.000000
     0.000000    0.445088    0.445088
     0.445088    0.000000    0.445088
   Si
     1
Direct
  0.000000  0.000000  0.000000
 
   16   16   16
 -.17060529395E+01 -.12152928044E+01 0.84055049532E-01 0.17443470797E+01 0.32384058430E+01
 0.42011904506E+01 0.45824822859E+01 0.46105704296E+01 0.45843695436E+01 0.46105704296E+01
 0.45824822859E+01 0.42011904506E+01 0.32384058430E+01 0.17443470797E+01 0.84055049532E-01
 -.12152928044E+01 -.12152928044E+01 -.32087625317E+00 0.11499654363E+01 0.26995679106E+01
 0.38762798513E+01 0.44794364225E+01 0.46178050421E+01 0.45825859100E+01 0.45826506959E+01
 0.46178377520E+01 0.44794047683E+01 0.38765574336E+01 0.27001786213E+01 0.11502567826E+01
 -.32120257167E+00 -.12155769189E+01 0.84055049532E-01 0.11499654363E+01 0.24896957886E+01
 0.36596626795E+01 0.43693090505E+01 0.46030654099E+01 0.45775378412E+01 0.45439409050E+01
 0.45778798002E+01 0.46033859911E+01 0.43693303097E+01 0.36596547124E+01 0.24902836359E+01
 0.11512646388E+01 0.85214036768E-01 -.32120257167E+00 0.17443470797E+01 0.26995679106E+01
 0.36596626795E+01 0.43226695903E+01 0.45860946824E+01 0.45715311728E+01 0.45047915254E+01
 0.45050298807E+01 0.45720393105E+01 0.45863689067E+01 0.43224870669E+01 0.36597009417E+01
 0.27007628410E+01 0.17463246387E+01 0.11512646388E+01 0.11502567826E+01 0.32384058430E+01
 0.38762798513E+01 0.43693090505E+01 0.45860946824E+01 0.45686671595E+01 0.44797547762E+01
 0.44387138632E+01 0.44801665081E+01 0.45690897321E+01 0.45862295200E+01 0.43693282625E+01
 0.38765874075E+01 0.32390730723E+01 0.27007628410E+01 0.24902836359E+01 0.27001786213E+01
 0.42011904506E+01 0.44794364225E+01 0.46030654099E+01 0.45715311728E+01 0.44797547762E+01
 0.44119056449E+01 0.44120968870E+01 0.44802064640E+01 0.45719468532E+01 0.46031991107E+01
 0.44793234920E+01 0.42010827986E+01 0.38765874075E+01 0.36597009417E+01 0.36596547124E+01
 0.38765574336E+01 0.45824822859E+01 0.46178050421E+01 0.45775378412E+01 0.45047915254E+01
 0.44387138632E+01 0.44120968870E+01 0.44388684741E+01 0.45051093745E+01 0.45778660549E+01
 0.46179270139E+01 0.45824044564E+01 0.44793234920E+01 0.43693282625E+01 0.43224870669E+01
 0.43693303097E+01 0.44794047683E+01 0.46105704296E+01 0.45825859100E+01 0.45439409050E+01
 0.45050298807E+01 0.44801665081E+01 0.44802064640E+01 0.45051093745E+01 0.45440630949E+01
 0.45828382496E+01 0.46108768727E+01 0.46179270139E+01 0.46031991107E+01 0.45862295200E+01
 0.45863689067E+01 0.46033859911E+01 0.46178377520E+01 0.45843695436E+01 0.45826506959E+01
 0.45778798002E+01 0.45720393105E+01 0.45690897321E+01 0.45719468532E+01 0.45778660549E+01
 0.45828382496E+01 0.45846654065E+01 0.45828382496E+01 0.45778660549E+01 0.45719468532E+01
 0.45690897321E+01 0.45720393105E+01 0.45778798002E+01 0.45826506959E+01 0.46105704296E+01
 0.46178377520E+01 0.46033859911E+01 0.45863689067E+01 0.45862295200E+01 0.46031991107E+01
 0.46179270139E+01 0.46108768727E+01 0.45828382496E+01 0.45440630949E+01 0.45051093745E+01
 0.44802064640E+01 0.44801665081E+01 0.45050298807E+01 0.45439409050E+01 0.45825859100E+01
 0.45824822859E+01 0.44794047683E+01 0.43693303097E+01 0.43224870669E+01 0.43693282625E+01
 0.44793234920E+01 0.45824044564E+01 0.46179270139E+01 0.45778660549E+01 0.45051093745E+01
 0.44388684741E+01 0.44120968870E+01 0.44387138632E+01 0.45047915254E+01 0.45775378412E+01
 0.46178050421E+01 0.42011904506E+01 0.38765574336E+01 0.36596547124E+01 0.36597009417E+01
 0.38765874075E+01 0.42010827986E+01 0.44793234920E+01 0.46031991107E+01 0.45719468532E+01
 0.44802064640E+01 0.44120968870E+01 0.44119056449E+01 0.44797547762E+01 0.45715311728E+01
 0.46030654099E+01 0.44794364225E+01 0.32384058430E+01 0.27001786213E+01 0.24902836359E+01
 0.27007628410E+01 0.32390730723E+01 0.38765874075E+01 0.43693282625E+01 0.45862295200E+01
 0.45690897321E+01 0.44801665081E+01 0.44387138632E+01 0.44797547762E+01 0.45686671595E+01
 0.45860946824E+01 0.43693090505E+01 0.38762798513E+01 0.17443470797E+01 0.11502567826E+01
 0.11512646388E+01 0.17463246387E+01 0.27007628410E+01 0.36597009417E+01 0.43224870669E+01
 0.45863689067E+01 0.45720393105E+01 0.45050298807E+01 0.45047915254E+01 0.45715311728E+01
 0.45860946824E+01 0.43226695903E+01 0.36596626795E+01 0.26995679106E+01 0.84055049532E-01
 -.32120257167E+00 0.85214036768E-01 0.11512646388E+01 0.24902836359E+01 0.36596547124E+01
 0.43693303097E+01 0.46033859911E+01 0.45778798002E+01 0.45439409050E+01 0.45775378412E+01
 0.46030654099E+01 0.43693090505E+01 0.36596626795E+01 0.24896957886E+01 0.11499654363E+01
 -.12152928044E+01 -.12155769189E+01 -.32120257167E+00 0.11502567826E+01 0.27001786213E+01
 0.38765574336E+01 0.44794047683E+01 0.46178377520E+01 0.45826506959E+01 0.45825859100E+01
 0.46178050421E+01 0.44794364225E+01 0.38762798513E+01 0.26995679106E+01 0.11499654363E+01
 -.32087625317E+00 -.12164384238E+01 -.32029144973E+00 0.11517366582E+01 0.27009967669E+01
 0.38764571242E+01 0.44791185344E+01 0.46181721633E+01 0.45834518909E+01 0.45829154999E+01
 0.46173562183E+01 0.44791719898E+01 0.38770273030E+01 0.27004951294E+01 0.11494065517E+01
 -.32320386143E+00 -.12177595359E+01 -.32029144973E+00 0.83487479056E+00 0.22916411772E+01
 0.35748844564E+01 0.43694261471E+01 0.46505771679E+01 0.46410785936E+01 0.46093427753E+01
 0.46406853337E+01 0.46502792876E+01 0.43695848241E+01 0.35749155779E+01 0.22902816268E+01
 0.83192836449E+00 -.32291284500E+00 -.76048384733E+00 0.11517366582E+01 0.22916411772E+01
 0.34541149013E+01 0.42855861801E+01 0.46546074311E+01 0.46832898498E+01 0.46235899628E+01
 0.46233013050E+01 0.46828553234E+01 0.46546457211E+01 0.42858741366E+01 0.34537244328E+01
 0.22901296577E+01 0.11498777486E+01 0.44519789637E+00 0.44603955268E+00 0.27009967669E+01
 0.35748844564E+01 0.42855861801E+01 0.46520435299E+01 0.47040841765E+01 0.46292228425E+01
 0.45891631980E+01 0.46285238271E+01 0.47037726264E+01 0.46524746250E+01 0.42858825567E+01
 0.35744195511E+01 0.27002069678E+01 0.19787044038E+01 0.16996224854E+01 0.19791835009E+01
 0.38764571242E+01 0.43694261471E+01 0.46546074311E+01 0.47040841765E+01 0.46301663400E+01
 0.45629782807E+01 0.45627530413E+01 0.46297704003E+01 0.47039783279E+01 0.46548386142E+01
 0.43696269114E+01 0.38763528418E+01 0.33458341299E+01 0.30029972592E+01 0.30031483709E+01
 0.33461239569E+01 0.44791185344E+01 0.46505771679E+01 0.46832898498E+01 0.46292228425E+01
 0.45629782807E+01 0.45340099781E+01 0.45628373130E+01 0.46290542121E+01 0.46832927310E+01
 0.46507997522E+01 0.44792928997E+01 0.42115517925E+01 0.39664265098E+01 0.38675245525E+01
 0.39666773919E+01 0.42116773214E+01 0.46181721633E+01 0.46410785936E+01 0.46235899628E+01
 0.45891631980E+01 0.45627530413E+01 0.45628373130E+01 0.45893539784E+01 0.46237208950E+01
 0.46410093551E+01 0.46179863869E+01 0.45379723416E+01 0.44292495979E+01 0.43511461827E+01
 0.43510537545E+01 0.44291276052E+01 0.45380348917E+01 0.45834518909E+01 0.46093427753E+01
 0.46233013050E+01 0.46285238271E+01 0.46297704003E+01 0.46290542121E+01 0.46237208950E+01
 0.46091808122E+01 0.45829376406E+01 0.45464739074E+01 0.45031976926E+01 0.44633785861E+01
 0.44466489442E+01 0.44631412548E+01 0.45030876511E+01 0.45467816558E+01 0.45829154999E+01
 0.46406853337E+01 0.46828553234E+01 0.47037726264E+01 0.47039783279E+01 0.46832927310E+01
 0.46410093551E+01 0.45829376406E+01 0.45177942918E+01 0.44537710697E+01 0.44004777958E+01
 0.43694615988E+01 0.43696007012E+01 0.44008174823E+01 0.44541452121E+01 0.45180380245E+01
 0.46173562183E+01 0.46502792876E+01 0.46546457211E+01 0.46524746250E+01 0.46548386142E+01
 0.46507997522E+01 0.46179863869E+01 0.45464739074E+01 0.44537710697E+01 0.43615730025E+01
 0.42916669885E+01 0.42654685774E+01 0.42921141660E+01 0.43622475874E+01 0.44541899239E+01
 0.45462678762E+01 0.44791719898E+01 0.43695848241E+01 0.42858741366E+01 0.42858825567E+01
 0.43696269114E+01 0.44792928997E+01 0.45379723416E+01 0.45031976926E+01 0.44004777958E+01
 0.42916669885E+01 0.42222043789E+01 0.42224433191E+01 0.42921323841E+01 0.44007396384E+01
 0.45031362963E+01 0.45377883152E+01 0.38770273030E+01 0.35749155779E+01 0.34537244328E+01
 0.35744195511E+01 0.38763528418E+01 0.42115517925E+01 0.44292495979E+01 0.44633785861E+01
 0.43694615988E+01 0.42654685774E+01 0.42224433191E+01 0.42658738822E+01 0.43696401943E+01
 0.44630994045E+01 0.44290400198E+01 0.42118839089E+01 0.27004951294E+01 0.22902816268E+01
 0.22901296577E+01 0.27002069678E+01 0.33458341299E+01 0.39664265098E+01 0.43511461827E+01
 0.44466489442E+01 0.43696007012E+01 0.42921141660E+01 0.42921323841E+01 0.43696401943E+01
 0.44466555839E+01 0.43510859318E+01 0.39663952935E+01 0.33459847217E+01 0.11494065517E+01
 0.83192836449E+00 0.11498777486E+01 0.19787044038E+01 0.30029972592E+01 0.38675245525E+01
 0.43510537545E+01 0.44631412548E+01 0.44008174823E+01 0.43622475874E+01 0.44007396384E+01
 0.44630994045E+01 0.43510859318E+01 0.38674709152E+01 0.30026559085E+01 0.19781209724E+01
 -.32320386143E+00 -.32291284500E+00 0.44519789637E+00 0.16996224854E+01 0.30031483709E+01
 0.39666773919E+01 0.44291276052E+01 0.45030876511E+01 0.44541452121E+01 0.44541899239E+01
 0.45031362963E+01 0.44290400198E+01 0.39663952935E+01 0.30026559085E+01 0.16989385491E+01
 0.44452482645E+00 -.12177595359E+01 -.76048384733E+00 0.44603955268E+00 0.19791835009E+01
 0.33461239569E+01 0.42116773214E+01 0.45380348917E+01 0.45467816558E+01 0.45180380245E+01
 0.45462678762E+01 0.45377883152E+01 0.42118839089E+01 0.33459847217E+01 0.19781209724E+01
 0.44452482645E+00 -.76152194558E+00 0.82311265040E-01 0.11493047078E+01 0.24903207786E+01
 0.36606453182E+01 0.43696943617E+01 0.46030357951E+01 0.45778619869E+01 0.45446394479E+01
 0.45782777433E+01 0.46032995083E+01 0.43693188763E+01 0.36600511817E+01 0.24906689472E+01
 0.11509990311E+01 0.84026192420E-01 -.32306314974E+00 0.11493047078E+01 0.22905482613E+01
 0.34547572305E+01 0.42866739607E+01 0.46548556165E+01 0.46829817539E+01 0.46237804224E+01
 0.46240972730E+01 0.46834328109E+01 0.46546387955E+01 0.42858180197E+01 0.34541578397E+01
 0.22908809175E+01 0.11502073035E+01 0.44432549929E+00 0.44385003702E+00 0.24903207786E+01
 0.34547572305E+01 0.42488105206E+01 0.46724735761E+01 0.47514334247E+01 0.46825325849E+01
 0.46436697092E+01 0.46827024505E+01 0.47514260016E+01 0.46720410379E+01 0.42481473083E+01
 0.34543089362E+01 0.24902900517E+01 0.16982203286E+01 0.13921034853E+01 0.16980661520E+01
 0.36606453182E+01 0.42866739607E+01 0.46724735761E+01 0.47745631684E+01 0.47136405294E+01
 0.46473132508E+01 0.46472442275E+01 0.47135611488E+01 0.47744710681E+01 0.46720239259E+01
 0.42858831134E+01 0.36601662500E+01 0.30024674510E+01 0.25810124347E+01 0.25808055009E+01
 0.30023166452E+01 0.43696943617E+01 0.46548556165E+01 0.47514334247E+01 0.47136405294E+01
 0.46467454646E+01 0.46159171560E+01 0.46464809580E+01 0.47133616594E+01 0.47512569499E+01
 0.46546372409E+01 0.43693229941E+01 0.39662352108E+01 0.36107550538E+01 0.34692669105E+01
 0.36110046110E+01 0.39666408891E+01 0.46030357951E+01 0.46829817539E+01 0.46825325849E+01
 0.46473132508E+01 0.46159171560E+01 0.46157266910E+01 0.46468653208E+01 0.46821953656E+01
 0.46830760529E+01 0.46033169845E+01 0.44291718770E+01 0.42209937884E+01 0.40794075682E+01
 0.40797942804E+01 0.42216459650E+01 0.44293302052E+01 0.45778619869E+01 0.46237804224E+01
 0.46436697092E+01 0.46472442275E+01 0.46464809580E+01 0.46468653208E+01 0.46431916028E+01
 0.46235054203E+01 0.45778658770E+01 0.45032194719E+01 0.44043046634E+01 0.43144528377E+01
 0.42777679346E+01 0.43144172889E+01 0.44041958973E+01 0.45030801794E+01 0.45446394479E+01
 0.46240972730E+01 0.46827024505E+01 0.47135611488E+01 0.47133616594E+01 0.46821953656E+01
 0.46235054203E+01 0.45442172419E+01 0.44538791721E+01 0.43640229105E+01 0.42889132520E+01
 0.42445065213E+01 0.42443156085E+01 0.42885043832E+01 0.43637361287E+01 0.44539482949E+01
 0.45782777433E+01 0.46834328109E+01 0.47514260016E+01 0.47744710681E+01 0.47512569499E+01
 0.46830760529E+01 0.45778658770E+01 0.44538791721E+01 0.43288339843E+01 0.42191690743E+01
 0.41424297537E+01 0.41145398467E+01 0.41422706644E+01 0.42189510600E+01 0.43287608720E+01
 0.44540973324E+01 0.46032995083E+01 0.46546387955E+01 0.46720410379E+01 0.46720239259E+01
 0.46546372409E+01 0.46033169845E+01 0.45032194719E+01 0.43640229105E+01 0.42191690743E+01
 0.40969307088E+01 0.40257190348E+01 0.40255867652E+01 0.40967436928E+01 0.42192061161E+01
 0.43642062777E+01 0.45033091321E+01 0.43693188763E+01 0.42858180197E+01 0.42481473083E+01
 0.42858831134E+01 0.43693229941E+01 0.44291718770E+01 0.44043046634E+01 0.42889132520E+01
 0.41424297537E+01 0.40257190348E+01 0.39809177753E+01 0.40256568554E+01 0.41424292194E+01
 0.42890625051E+01 0.44045314764E+01 0.44293180648E+01 0.36600511817E+01 0.34541578397E+01
 0.34543089362E+01 0.36601662500E+01 0.39662352108E+01 0.42209937884E+01 0.43144528377E+01
 0.42445065213E+01 0.41145398467E+01 0.40255867652E+01 0.40256568554E+01 0.41146299033E+01
 0.42445757644E+01 0.43147484643E+01 0.42215347575E+01 0.39665658583E+01 0.24906689472E+01
 0.22908809175E+01 0.24902900517E+01 0.30024674510E+01 0.36107550538E+01 0.40794075682E+01
 0.42777679346E+01 0.42443156085E+01 0.41422706644E+01 0.40967436928E+01 0.41424292194E+01
 0.42445757644E+01 0.42780068222E+01 0.40795817898E+01 0.36110046110E+01 0.30028908922E+01
 0.11509990311E+01 0.11502073035E+01 0.16982203286E+01 0.25810124347E+01 0.34692669105E+01
 0.40797942804E+01 0.43144172889E+01 0.42885043832E+01 0.42189510600E+01 0.42192061161E+01
 0.42890625051E+01 0.43147484643E+01 0.40795817898E+01 0.34690631385E+01 0.25817388706E+01
 0.16997016640E+01 0.84026192420E-01 0.44432549929E+00 0.13921034853E+01 0.25808055009E+01
 0.36110046110E+01 0.42216459650E+01 0.44041958973E+01 0.43637361287E+01 0.43287608720E+01
 0.43642062777E+01 0.44045314764E+01 0.42215347575E+01 0.36110046110E+01 0.25817388706E+01
 0.13939163197E+01 0.44584022551E+00 -.32306314974E+00 0.44385003702E+00 0.16980661520E+01
 0.30023166452E+01 0.39666408891E+01 0.44293302052E+01 0.45030801794E+01 0.44539482949E+01
 0.44540973324E+01 0.45033091321E+01 0.44293180648E+01 0.39665658583E+01 0.30028908922E+01
 0.16997016640E+01 0.44584022551E+00 -.32215125097E+00 0.17449390925E+01 0.26992591348E+01
 0.36587669744E+01 0.43220646181E+01 0.45861729310E+01 0.45718670900E+01 0.45048445068E+01
 0.45047941623E+01 0.45718738685E+01 0.45864625717E+01 0.43226699790E+01 0.36596843079E+01
 0.27005049460E+01 0.17461895789E+01 0.11516933494E+01 0.11511441838E+01 0.26992591348E+01
 0.35734368135E+01 0.42851770386E+01 0.46522877019E+01 0.47041832008E+01 0.46290604302E+01
 0.45892023815E+01 0.46289281883E+01 0.47042028724E+01 0.46526586063E+01 0.42859449241E+01
 0.35746596857E+01 0.27007813710E+01 0.19793984889E+01 0.16997947003E+01 0.19782574873E+01
 0.36587669744E+01 0.42851770386E+01 0.46722403885E+01 0.47749550434E+01 0.47136331933E+01
 0.46468591472E+01 0.46470145844E+01 0.47138548330E+01 0.47749491937E+01 0.46722768904E+01
 0.42858768629E+01 0.36602743997E+01 0.30031600977E+01 0.25821993017E+01 0.25815056830E+01
 0.30015503239E+01 0.43220646181E+01 0.46522877019E+01 0.47749550434E+01 0.47437682090E+01
 0.46756691157E+01 0.46439396978E+01 0.46760620683E+01 0.47440794954E+01 0.47748432674E+01
 0.46520952361E+01 0.43225338712E+01 0.38677182476E+01 0.34698933706E+01 0.33114432980E+01
 0.34687109632E+01 0.38664372444E+01 0.45861729310E+01 0.47041832008E+01 0.47136331933E+01
 0.46756691157E+01 0.46401452968E+01 0.46404025629E+01 0.46761689155E+01 0.47138562530E+01
 0.47039709680E+01 0.45859582292E+01 0.43511376382E+01 0.40797396360E+01 0.38973198731E+01
 0.38969609355E+01 0.40790687895E+01 0.43508476722E+01 0.45718670900E+01 0.46290604302E+01
 0.46468591472E+01 0.46439396978E+01 0.46404025629E+01 0.46444285801E+01 0.46472297637E+01
 0.46290122393E+01 0.45717222653E+01 0.44632581018E+01 0.43143854702E+01 0.41800269791E+01
 0.41255767316E+01 0.41799482320E+01 0.43142263714E+01 0.44631953746E+01 0.45048445068E+01
 0.45892023815E+01 0.46470145844E+01 0.46760620683E+01 0.46761689155E+01 0.46472297637E+01
 0.45893637906E+01 0.45049227484E+01 0.44004773496E+01 0.42887734405E+01 0.41882933598E+01
 0.41262224235E+01 0.41262955191E+01 0.41884241836E+01 0.42888328621E+01 0.44004538785E+01
 0.45047941623E+01 0.46289281883E+01 0.47138548330E+01 0.47440794954E+01 0.47138562530E+01
 0.46290122393E+01 0.45049227484E+01 0.43616262863E+01 0.42190762426E+01 0.40960191647E+01
 0.40111281601E+01 0.39805914685E+01 0.40111834374E+01 0.40961463828E+01 0.42191898648E+01
 0.43616024763E+01 0.45718738685E+01 0.47042028724E+01 0.47749491937E+01 0.47748432674E+01
 0.47039709680E+01 0.45717222653E+01 0.44004773496E+01 0.42190762426E+01 0.40521722912E+01
 0.39225993167E+01 0.38511068139E+01 0.38511087807E+01 0.39225247912E+01 0.40519391133E+01
 0.42188038184E+01 0.44003872363E+01 0.45864625717E+01 0.46526586063E+01 0.46722768904E+01
 0.46520952361E+01 0.45859582292E+01 0.44632581018E+01 0.42887734405E+01 0.40960191647E+01
 0.39225993167E+01 0.38001208018E+01 0.37556394105E+01 0.38000527356E+01 0.39223289111E+01
 0.40954944256E+01 0.42882580928E+01 0.44631980235E+01 0.43226699790E+01 0.42859449241E+01
 0.42858768629E+01 0.43225338712E+01 0.43511376382E+01 0.43143854702E+01 0.41882933598E+01
 0.40111281601E+01 0.38511068139E+01 0.37556394105E+01 0.37554640134E+01 0.38507429710E+01
 0.40108538561E+01 0.41882007910E+01 0.43144110385E+01 0.43512379636E+01 0.36596843079E+01
 0.35746596857E+01 0.36602743997E+01 0.38677182476E+01 0.40797396360E+01 0.41800269791E+01
 0.41262224235E+01 0.39805914685E+01 0.38511087807E+01 0.38000527356E+01 0.38507429710E+01
 0.39801868062E+01 0.41262288554E+01 0.41804751640E+01 0.40800237602E+01 0.38673508601E+01
 0.27005049460E+01 0.27007813710E+01 0.30031600977E+01 0.34698933706E+01 0.38973198731E+01
 0.41255767316E+01 0.41262955191E+01 0.40111834374E+01 0.39225247912E+01 0.39223289111E+01
 0.40108538561E+01 0.41262288554E+01 0.41257388713E+01 0.38972970791E+01 0.34694538930E+01
 0.30025620913E+01 0.17461895789E+01 0.19793984889E+01 0.25821993017E+01 0.33114432980E+01
 0.38969609355E+01 0.41799482320E+01 0.41884241836E+01 0.40961463828E+01 0.40519391133E+01
 0.40954944256E+01 0.41882007910E+01 0.41804751640E+01 0.38972970791E+01 0.33109128849E+01
 0.25812659320E+01 0.19787998175E+01 0.11516933494E+01 0.16997947003E+01 0.25815056830E+01
 0.34687109632E+01 0.40790687895E+01 0.43142263714E+01 0.42888328621E+01 0.42191898648E+01
 0.42188038184E+01 0.42882580928E+01 0.43144110385E+01 0.40800237602E+01 0.34694538930E+01
 0.25812659320E+01 0.16989205107E+01 0.11512202599E+01 0.11511441838E+01 0.19782574873E+01
 0.30015503239E+01 0.38664372444E+01 0.43508476722E+01 0.44631953746E+01 0.44004538785E+01
 0.43616024763E+01 0.44003872363E+01 0.44631980235E+01 0.43512379636E+01 0.38673508601E+01
 0.30025620913E+01 0.19787998175E+01 0.11512202599E+01 0.83416550611E+00 0.32405349388E+01
 0.38776027435E+01 0.43693090505E+01 0.45855809182E+01 0.45685321966E+01 0.44799687602E+01
 0.44387138632E+01 0.44797324607E+01 0.45685294210E+01 0.45859347078E+01 0.43693282625E+01
 0.38764652479E+01 0.32384235631E+01 0.26999129332E+01 0.24902836359E+01 0.27016407488E+01
 0.38776027435E+01 0.43697743530E+01 0.46540248562E+01 0.47033657190E+01 0.46299890670E+01
 0.45631942893E+01 0.45628416347E+01 0.46295655767E+01 0.47037135240E+01 0.46547397908E+01
 0.43696693402E+01 0.38763049916E+01 0.33455176218E+01 0.30026400744E+01 0.30033418946E+01
 0.33471158873E+01 0.43693090505E+01 0.46540248562E+01 0.47508084347E+01 0.47133402515E+01
 0.46464951162E+01 0.46155641902E+01 0.46461568122E+01 0.47132657604E+01 0.47514193178E+01
 0.46548499393E+01 0.43693344275E+01 0.39661294975E+01 0.36110192518E+01 0.34702138294E+01
 0.36121924554E+01 0.39672079363E+01 0.45855809182E+01 0.47033657190E+01 0.47133402515E+01
 0.46757569375E+01 0.46400670482E+01 0.46399752769E+01 0.46756602196E+01 0.47136240626E+01
 0.47041364101E+01 0.45862516729E+01 0.43511450757E+01 0.40795274988E+01 0.38975777681E+01
 0.38981101627E+01 0.40804478451E+01 0.43513442060E+01 0.45685321966E+01 0.46299890670E+01
 0.46464951162E+01 0.46400670482E+01 0.46344507604E+01 0.46399160783E+01 0.46464911159E+01
 0.46303435321E+01 0.45690780281E+01 0.44466983405E+01 0.42777592776E+01 0.41258501223E+01
 0.40645419760E+01 0.41259967663E+01 0.42777564738E+01 0.44463390757E+01 0.44799687602E+01
 0.45631942893E+01 0.46155641902E+01 0.46399752769E+01 0.46399160783E+01 0.46154438811E+01
 0.45631982682E+01 0.44802806174E+01 0.43696709178E+01 0.42442473245E+01 0.41262344609E+01
 0.40521439574E+01 0.40521837904E+01 0.41261759846E+01 0.42438786276E+01 0.43691537624E+01
 0.44387138632E+01 0.45628416347E+01 0.46461568122E+01 0.46756602196E+01 0.46464911159E+01
 0.45631982682E+01 0.44388836742E+01 0.42919485811E+01 0.41424284886E+01 0.40110477746E+01
 0.39194908178E+01 0.38864603265E+01 0.39195896028E+01 0.40111266586E+01 0.41424406528E+01
 0.42919094481E+01 0.44797324607E+01 0.46295655767E+01 0.47132657604E+01 0.47136240626E+01
 0.46303435321E+01 0.44802806174E+01 0.42919485811E+01 0.40968111973E+01 0.39224659338E+01
 0.37910469436E+01 0.37199491967E+01 0.37198785008E+01 0.37910675401E+01 0.39228640283E+01
 0.40973509063E+01 0.42920529845E+01 0.45685294210E+01 0.47037135240E+01 0.47514193178E+01
 0.47041364101E+01 0.45690780281E+01 0.43696709178E+01 0.41424284886E+01 0.39224659338E+01
 0.37397153677E+01 0.36184906665E+01 0.35759819620E+01 0.36186272323E+01 0.37399574006E+01
 0.39226902332E+01 0.41424330323E+01 0.43693358972E+01 0.45859347078E+01 0.46547397908E+01
 0.46548499393E+01 0.45862516729E+01 0.44466983405E+01 0.42442473245E+01 0.40110477746E+01
 0.37910469436E+01 0.36184906665E+01 0.35231169337E+01 0.35232798068E+01 0.36188144872E+01
 0.37912067753E+01 0.40108711738E+01 0.42438251943E+01 0.44462448784E+01 0.43693282625E+01
 0.43696693402E+01 0.43693344275E+01 0.43511450757E+01 0.42777592776E+01 0.41262344609E+01
 0.39194908178E+01 0.37199491967E+01 0.35759819620E+01 0.35232798068E+01 0.35761391598E+01
 0.37201814414E+01 0.39195896028E+01 0.41260521880E+01 0.42774437888E+01 0.43509694111E+01
 0.38764652479E+01 0.38763049916E+01 0.39661294975E+01 0.40795274988E+01 0.41258501223E+01
 0.40521439574E+01 0.38864603265E+01 0.37198785008E+01 0.36186272323E+01 0.36188144872E+01
 0.37201814414E+01 0.38864668254E+01 0.40518476468E+01 0.41256304588E+01 0.40796460259E+01
 0.39664408206E+01 0.32384235631E+01 0.33455176218E+01 0.36110192518E+01 0.38975777681E+01
 0.40645419760E+01 0.40521837904E+01 0.39195896028E+01 0.37910675401E+01 0.37399574006E+01
 0.37912067753E+01 0.39195896028E+01 0.40518476468E+01 0.40640274297E+01 0.38972416245E+01
 0.36110192518E+01 0.33456568570E+01 0.26999129332E+01 0.30026400744E+01 0.34702138294E+01
 0.38981101627E+01 0.41259967663E+01 0.41261759846E+01 0.40111266586E+01 0.39228640283E+01
 0.39226902332E+01 0.40108711738E+01 0.41260521880E+01 0.41256304588E+01 0.38972416245E+01
 0.34693233021E+01 0.30022480367E+01 0.26998670852E+01 0.24902836359E+01 0.30033418946E+01
 0.36121924554E+01 0.40804478451E+01 0.42777564738E+01 0.42438786276E+01 0.41424406528E+01
 0.40973509063E+01 0.41424330323E+01 0.42438251943E+01 0.42774437888E+01 0.40796460259E+01
 0.36110192518E+01 0.30022480367E+01 0.24896650617E+01 0.22901662019E+01 0.27016407488E+01
 0.33471158873E+01 0.39672079363E+01 0.43513442060E+01 0.44463390757E+01 0.43691537624E+01
 0.42919094481E+01 0.42920529845E+01 0.43693358972E+01 0.44462448784E+01 0.43509694111E+01
 0.39664408206E+01 0.33456568570E+01 0.26998670852E+01 0.22901662019E+01 0.22910059520E+01
 0.42012029161E+01 0.44802766192E+01 0.46043096606E+01 0.45724466373E+01 0.44799812257E+01
 0.44117869240E+01 0.44121228345E+01 0.44803467203E+01 0.45718664112E+01 0.46029161878E+01
 0.44791867220E+01 0.42011528014E+01 0.38764777134E+01 0.36591047606E+01 0.36587523852E+01
 0.38758692182E+01 0.44802766192E+01 0.46518363455E+01 0.46838168209E+01 0.46291967895E+01
 0.45630274573E+01 0.45343479135E+01 0.45631784867E+01 0.46290673605E+01 0.46829474850E+01
 0.46504087891E+01 0.44791968913E+01 0.42116046987E+01 0.39660003076E+01 0.38663728961E+01
 0.39655784294E+01 0.42116918132E+01 0.46043096606E+01 0.46838168209E+01 0.46824172269E+01
 0.46467413176E+01 0.46156197940E+01 0.46158331642E+01 0.46470160349E+01 0.46821275778E+01
 0.46828438113E+01 0.46031228438E+01 0.44291319854E+01 0.42209627039E+01 0.40790825106E+01
 0.40792082200E+01 0.42214193995E+01 0.44300277749E+01 0.45724466373E+01 0.46291967895E+01
 0.46467413176E+01 0.46437736848E+01 0.46402543620E+01 0.46442009510E+01 0.46468494066E+01
 0.46286468357E+01 0.45716372653E+01 0.44634129776E+01 0.43144191114E+01 0.41797860442E+01
 0.41254285307E+01 0.41803536974E+01 0.43151531191E+01 0.44641590024E+01 0.44799812257E+01
 0.45630274573E+01 0.46156197940E+01 0.46402543620E+01 0.46401425278E+01 0.46153530203E+01
 0.45627685012E+01 0.44798337358E+01 0.43695904757E+01 0.42444707393E+01 0.41262880405E+01
 0.40518659602E+01 0.40520740963E+01 0.41267131999E+01 0.42447840665E+01 0.43697302529E+01
 0.44117869240E+01 0.45343479135E+01 0.46158331642E+01 0.46442009510E+01 0.46153530203E+01
 0.45338712618E+01 0.44117217481E+01 0.42656221645E+01 0.41147818500E+01 0.39806532644E+01
 0.38865351621E+01 0.38524760427E+01 0.38866801007E+01 0.39806984341E+01 0.41145718281E+01
 0.42653583428E+01 0.44121228345E+01 0.45631784867E+01 0.46470160349E+01 0.46468494066E+01
 0.45627685012E+01 0.44117217481E+01 0.42222187235E+01 0.40259648669E+01 0.38511041840E+01
 0.37200875260E+01 0.36497640820E+01 0.36497682772E+01 0.37200170393E+01 0.38508999355E+01
 0.40258075695E+01 0.42223487219E+01 0.44803467203E+01 0.46290673605E+01 0.46821275778E+01
 0.46286468357E+01 0.44798337358E+01 0.42656221645E+01 0.40259648669E+01 0.38000320014E+01
 0.36185352024E+01 0.35018904945E+01 0.34617004953E+01 0.35018262615E+01 0.36184644096E+01
 0.38000091153E+01 0.40260614505E+01 0.42659402251E+01 0.45718664112E+01 0.46829474850E+01
 0.46828438113E+01 0.45716372653E+01 0.43695904757E+01 0.41147818500E+01 0.38511041840E+01
 0.36185352024E+01 0.34473851541E+01 0.33570766845E+01 0.33570399858E+01 0.34473306720E+01
 0.36185467902E+01 0.38511937807E+01 0.41149329724E+01 0.43698068448E+01 0.46029161878E+01
 0.46504087891E+01 0.46031228438E+01 0.44634129776E+01 0.42444707393E+01 0.39806532644E+01
 0.37200875260E+01 0.35018904945E+01 0.33570766845E+01 0.33063319123E+01 0.33570245887E+01
 0.35018513895E+01 0.37201667120E+01 0.39808456165E+01 0.42445790979E+01 0.44632847530E+01
 0.44791867220E+01 0.44791968913E+01 0.44291319854E+01 0.43144191114E+01 0.41262880405E+01
 0.38865351621E+01 0.36497640820E+01 0.34617004953E+01 0.33570399858E+01 0.33570245887E+01
 0.34617433035E+01 0.36499588828E+01 0.38867792711E+01 0.41264121749E+01 0.43144129461E+01
 0.44290990299E+01 0.42011528014E+01 0.42116046987E+01 0.42209627039E+01 0.41797860442E+01
 0.40518659602E+01 0.38524760427E+01 0.36497682772E+01 0.35018262615E+01 0.34473306720E+01
 0.35018513895E+01 0.36499588828E+01 0.38528328633E+01 0.40522021038E+01 0.41799839152E+01
 0.42210739113E+01 0.42116764902E+01 0.38764777134E+01 0.39660003076E+01 0.40790825106E+01
 0.41254285307E+01 0.40520740963E+01 0.38866801007E+01 0.37200170393E+01 0.36184644096E+01
 0.36185467902E+01 0.37201667120E+01 0.38867792711E+01 0.40522021038E+01 0.41257404283E+01
 0.40795516934E+01 0.39664158173E+01 0.38766398087E+01 0.36591047606E+01 0.38663728961E+01
 0.40792082200E+01 0.41803536974E+01 0.41267131999E+01 0.39806984341E+01 0.38508999355E+01
 0.38000091153E+01 0.38511937807E+01 0.39808456165E+01 0.41264121749E+01 0.41799839152E+01
 0.40795516934E+01 0.38676002620E+01 0.36602810218E+01 0.35745376627E+01 0.36587523852E+01
 0.39655784294E+01 0.42214193995E+01 0.43151531191E+01 0.42447840665E+01 0.41145718281E+01
 0.40258075695E+01 0.40260614505E+01 0.41149329724E+01 0.42445790979E+01 0.43144129461E+01
 0.42210739113E+01 0.39664158173E+01 0.36602810218E+01 0.34540823707E+01 0.34533086692E+01
 0.38758692182E+01 0.42116918132E+01 0.44300277749E+01 0.44641590024E+01 0.43697302529E+01
 0.42653583428E+01 0.42223487219E+01 0.42659402251E+01 0.43698068448E+01 0.44632847530E+01
 0.44290990299E+01 0.42116764902E+01 0.38766398087E+01 0.35745376627E+01 0.34533086692E+01
 0.35738340043E+01 0.45807385014E+01 0.46167984449E+01 0.45778619869E+01 0.45056646186E+01
 0.44390991745E+01 0.44119072010E+01 0.44387122376E+01 0.45053259967E+01 0.45782639979E+01
 0.46182081831E+01 0.45824981227E+01 0.44794272865E+01 0.43697135737E+01 0.43230338927E+01
 0.43693188763E+01 0.44782544695E+01 0.46167984449E+01 0.46407114963E+01 0.46242322920E+01
 0.45900485849E+01 0.45632466695E+01 0.45629962469E+01 0.45895444380E+01 0.46240139725E+01
 0.46411835911E+01 0.46179474280E+01 0.45379162247E+01 0.44294007068E+01 0.43514152069E+01
 0.43509794858E+01 0.44282552081E+01 0.45364941539E+01 0.45778619869E+01 0.46242322920E+01
 0.46439705535E+01 0.46472477720E+01 0.46464809580E+01 0.46471313930E+01 0.46436719851E+01
 0.46238813401E+01 0.45778658770E+01 0.45029578207E+01 0.44041995637E+01 0.43146395117E+01
 0.42777679346E+01 0.43137108563E+01 0.44030194863E+01 0.45022638992E+01 0.45056646186E+01
 0.45900485849E+01 0.46472477720E+01 0.46757974871E+01 0.46759308089E+01 0.46472919373E+01
 0.45895934337E+01 0.45050568549E+01 0.44004024755E+01 0.42886276091E+01 0.41882996103E+01
 0.41263214718E+01 0.41260851081E+01 0.41877162399E+01 0.42881326799E+01 0.44004963220E+01
 0.44390991745E+01 0.45632466695E+01 0.46464809580E+01 0.46759308089E+01 0.46467414643E+01
 0.45633113059E+01 0.44387274377E+01 0.42916424163E+01 0.41422661207E+01 0.40111228714E+01
 0.39195844840E+01 0.38863532218E+01 0.39193254049E+01 0.40109123163E+01 0.41424292194E+01
 0.42921325371E+01 0.44119072010E+01 0.45629962469E+01 0.46471313930E+01 0.46472919373E+01
 0.45633113059E+01 0.44120093137E+01 0.42220680094E+01 0.40256027554E+01 0.38509331740E+01
 0.37201766423E+01 0.36498039736E+01 0.36495900550E+01 0.37198598613E+01 0.38510091812E+01