       N       E                     dE             d eps       ncg     rms          rms(c)
DAV:   1    -0.219986246436E+01   -0.21999E+01   -0.14485E+03   840   0.295E+02
DAV:   2    -0.314493055754E+01   -0.94507E+00   -0.88157E+00  1014   0.249E+01
DAV:   3    -0.314602906645E+01   -0.10985E-02   -0.10985E-02   780   0.829E-01
DAV:   4    -0.314602930051E+01   -0.23406E-06   -0.23265E-06   948   0.105E-02
DAV:   5    -0.314602929744E+01    0.30707E-08   -0.57466E-10   618   0.104E-04    0.164E+00
DAV:   6    -0.307238973281E+01    0.73640E-01   -0.32595E-03   744   0.456E-01    0.100E+00
DAV:   7    -0.302868826077E+01    0.43701E-01   -0.84112E-03   750   0.730E-01    0.229E-02
DAV:   8    -0.302869273383E+01   -0.44731E-05   -0.50567E-06   750   0.219E-02
   1 F= -.30286927E+01 E0= -.30281867E+01  d E =-.101207E-02
