diamond Si                              
   5.90000000000000     
     0.000000    0.490819    0.490819
     0.490819    0.000000    0.490819
     0.490819    0.490819    0.000000
   Si
     2
Direct
  0.875000  0.875000  0.875000
  0.125000  0.125000  0.125000
 
   32   32   32
 0.22206684519E+02 0.22253300435E+02 0.22335160979E+02 0.22306031640E+02 0.21940372819E+02
 0.21058530484E+02 0.19833553308E+02 0.18747543644E+02 0.18312806396E+02 0.18747644209E+02
 0.19833500634E+02 0.21058154762E+02 0.21939823980E+02 0.22305640950E+02 0.22335138215E+02
 0.22253602311E+02 0.22207108558E+02 0.22253602311E+02 0.22335138215E+02 0.22305640950E+02
 0.21939823980E+02 0.21058154762E+02 0.19833500634E+02 0.18747644209E+02 0.18312806396E+02
 0.18747543644E+02 0.19833553308E+02 0.21058530484E+02 0.21940372819E+02 0.22306031640E+02
 0.22335160979E+02 0.22253300435E+02 0.22253300435E+02 0.22873011538E+02 0.23365732136E+02
 0.23360686780E+02 0.22480059125E+02 0.20800279790E+02 0.18918113320E+02 0.17674002632E+02
 0.17674001839E+02 0.18918097453E+02 0.20800211857E+02 0.22479878870E+02 0.23360354087E+02
 0.23365359134E+02 0.22872901258E+02 0.22253653848E+02 0.21683126405E+02 0.21220832218E+02
 0.20817498146E+02 0.20367891944E+02 0.19780278274E+02 0.19017019848E+02 0.18236455778E+02
 0.17732621373E+02 0.17732645000E+02 0.18236526752E+02 0.19017209618E+02 0.19780709985E+02
 0.20368460744E+02 0.20817795087E+02 0.21220572830E+02 0.21682553603E+02 0.22335160979E+02
 0.23365732136E+02 0.23855912944E+02 0.23202264561E+02 0.21260519356E+02 0.18582091431E+02
 0.16245945491E+02 0.15318966438E+02 0.16246042480E+02 0.18582150447E+02 0.21260370258E+02
 0.23201868389E+02 0.23855449097E+02 0.23365469686E+02 0.22335231522E+02 0.21220877045E+02
 0.20201495794E+02 0.19330874944E+02 0.18572237134E+02 0.17860836927E+02 0.17170038582E+02
 0.16543076463E+02 0.16079704270E+02 0.15905920171E+02 0.16079691596E+02 0.16543162225E+02
 0.17170268678E+02 0.17861093039E+02 0.18572340484E+02 0.19330736861E+02 0.20201179887E+02
 0.21220572830E+02 0.22306031640E+02 0.23360686780E+02 0.23202264561E+02 0.21388313444E+02
 0.18236921472E+02 0.14850632656E+02 0.12656737977E+02 0.12656901599E+02 0.14850859729E+02
 0.18236794218E+02 0.21387834016E+02 0.23201815841E+02 0.23360484235E+02 0.22305915360E+02
 0.20817643083E+02 0.19330756618E+02 0.18002714155E+02 0.16876123657E+02 0.15925438518E+02
 0.15114933258E+02 0.14441248935E+02 0.13941838813E+02 0.13672222120E+02 0.13672063586E+02
 0.13941638132E+02 0.14441369371E+02 0.15115201832E+02 0.15925384634E+02 0.16875696640E+02
 0.18002348984E+02 0.19330736861E+02 0.20817795087E+02 0.21940372819E+02 0.22480059125E+02
 0.21260519356E+02 0.18236921472E+02 0.14277861298E+02 0.10906617464E+02 0.95822726067E+01
 0.10906553475E+02 0.14277859101E+02 0.18237002961E+02 0.21260509560E+02 0.22479807352E+02
 0.21939984434E+02 0.20368207874E+02 0.18572365324E+02 0.16875888868E+02 0.15402616713E+02
 0.14180483334E+02 0.13189713118E+02 0.12407677145E+02 0.11831413384E+02 0.11474742137E+02
 0.11353666247E+02 0.11474762916E+02 0.11831424958E+02 0.12407668135E+02 0.13189686797E+02
 0.14180405304E+02 0.15402446229E+02 0.16875696640E+02 0.18572340484E+02 0.20368460744E+02
 0.21058530484E+02 0.20800279790E+02 0.18582091431E+02 0.14850632656E+02 0.10906617464E+02
 0.83732712785E+01 0.83731036766E+01 0.10906445177E+02 0.14850890435E+02 0.18582562987E+02
 0.20800376865E+02 0.21058159172E+02 0.19780362658E+02 0.17861091894E+02 0.15925494444E+02
 0.14180325344E+02 0.12710209262E+02 0.11526197116E+02 0.10607500469E+02 0.99318901005E+01
 0.94865109295E+01 0.92653541592E+01 0.92655016385E+01 0.94867411443E+01 0.99318864860E+01
 0.10607313032E+02 0.11526142710E+02 0.12710358828E+02 0.14180405304E+02 0.15925384634E+02
 0.17861093039E+02 0.19780709985E+02 0.19833553308E+02 0.18918113320E+02 0.16245945491E+02
 0.12656737977E+02 0.95822726067E+01 0.83731036766E+01 0.95821374837E+01 0.12656709334E+02
 0.16246152756E+02 0.18918374461E+02 0.19833600587E+02 0.19017009406E+02 0.17170018342E+02
 0.15115078853E+02 0.13189697037E+02 0.11526197340E+02 0.10170057964E+02 0.91144734667E+01
 0.83325998922E+01 0.77969111103E+01 0.74855102452E+01 0.73835497150E+01 0.74855444632E+01
 0.77969502874E+01 0.83326179748E+01 0.91144635657E+01 0.10170019813E+02 0.11526142710E+02
 0.13189686797E+02 0.15115201832E+02 0.17170268678E+02 0.19017209618E+02 0.18747543644E+02
 0.17674002632E+02 0.15318966438E+02 0.12656901599E+02 0.10906553475E+02 0.10906445177E+02
 0.12656709334E+02 0.15318940242E+02 0.17674213129E+02 0.18747768856E+02 0.18236502237E+02
 0.16542911341E+02 0.14441174313E+02 0.12407706638E+02 0.10607466501E+02 0.91145332503E+01
 0.79394176260E+01 0.70584714681E+01 0.64374736973E+01 0.60444254240E+01 0.58547608819E+01
 0.58547541252E+01 0.60444040323E+01 0.64374618860E+01 0.70585056034E+01 0.79394530440E+01
 0.91144635657E+01 0.10607313032E+02 0.12407668135E+02 0.14441369371E+02 0.16543162225E+02
 0.18236526752E+02 0.18312806396E+02 0.17674001839E+02 0.16246042480E+02 0.14850859729E+02
 0.14277859101E+02 0.14850890435E+02 0.16246152756E+02 0.17674213129E+02 0.18313057496E+02
 0.17732829445E+02 0.16079747225E+02 0.13941590771E+02 0.11831349569E+02 0.99318382308E+01
 0.83326024899E+01 0.70584993662E+01 0.60918168869E+01 0.53957410976E+01 0.49313697252E+01
 0.46667220073E+01 0.45809420661E+01 0.46667438032E+01 0.49314034063E+01 0.53957720535E+01
 0.60918342357E+01 0.70585056034E+01 0.83326179748E+01 0.99318864860E+01 0.11831424958E+02
 0.13941638132E+02 0.16079691596E+02 0.17732645000E+02 0.18747644209E+02 0.18918097453E+02
 0.18582150447E+02 0.18236794218E+02 0.18237002961E+02 0.18582562987E+02 0.18918374461E+02
 0.18747768856E+02 0.17732829445E+02 0.15906255187E+02 0.13672260646E+02 0.11474639916E+02
 0.94864820483E+01 0.77968456481E+01 0.64375186010E+01 0.53957765786E+01 0.46341521994E+01
 0.41087145657E+01 0.37810673505E+01 0.36240953910E+01 0.36240419786E+01 0.37810129785E+01
 0.41087873304E+01 0.46342653380E+01 0.53957720535E+01 0.64374618860E+01 0.77969502874E+01
 0.94867411443E+01 0.11474762916E+02 0.13672063586E+02 0.15905920171E+02 0.17732621373E+02
 0.19833500634E+02 0.20800211857E+02 0.21260370258E+02 0.21387834016E+02 0.21260509560E+02
 0.20800376865E+02 0.19833600587E+02 0.18236502237E+02 0.16079747225E+02 0.13672260646E+02
 0.11353666698E+02 0.92654633140E+01 0.74855047536E+01 0.60443927413E+01 0.49314198429E+01
 0.41088187912E+01 0.35287543113E+01 0.31471094737E+01 0.29310387436E+01 0.28611210699E+01
 0.29310178129E+01 0.31470753496E+01 0.35287173591E+01 0.41087873304E+01 0.49314034063E+01
 0.60444040323E+01 0.74855444632E+01 0.92655016385E+01 0.11353666247E+02 0.13672222120E+02
 0.16079704270E+02 0.18236455778E+02 0.21058154762E+02 0.22479878870E+02 0.23201868389E+02
 0.23201815841E+02 0.22479807352E+02 0.21058159172E+02 0.19017009406E+02 0.16542911341E+02
 0.13941590771E+02 0.11474639916E+02 0.92654633140E+01 0.73836854609E+01 0.58547596120E+01
 0.46667019162E+01 0.37810845325E+01 0.31472366335E+01 0.27159190143E+01 0.24485905999E+01
 0.23207001625E+01 0.23207464953E+01 0.24486362046E+01 0.27158348191E+01 0.31470753496E+01
 0.37810129785E+01 0.46667438032E+01 0.58547541252E+01 0.73835497150E+01 0.92653541592E+01
 0.11474742137E+02 0.13941838813E+02 0.16543076463E+02 0.19017019848E+02 0.21939823980E+02
 0.23360354087E+02 0.23855449097E+02 0.23360484235E+02 0.21939984434E+02 0.19780362658E+02
 0.17170018342E+02 0.14441174313E+02 0.11831349569E+02 0.94864820483E+01 0.74855047536E+01
 0.58547596120E+01 0.45809366609E+01 0.36240343569E+01 0.29310145238E+01 0.24486433195E+01
 0.21330895610E+01 0.19544669418E+01 0.18965739256E+01 0.19544528816E+01 0.21330733309E+01
 0.24486362046E+01 0.29310178129E+01 0.36240419786E+01 0.45809420661E+01 0.58547608819E+01
 0.74855102452E+01 0.94865109295E+01 0.11831413384E+02 0.14441248935E+02 0.17170038582E+02
 0.19780278274E+02 0.22305640950E+02 0.23365359134E+02 0.23365469686E+02 0.22305915360E+02
 0.20368207874E+02 0.17861091894E+02 0.15115078853E+02 0.12407706638E+02 0.99318382308E+01
 0.77968456481E+01 0.60443927413E+01 0.46667019162E+01 0.36240343569E+01 0.28610137883E+01
 0.23206541514E+01 0.19544319818E+01 0.17273784516E+01 0.16185085552E+01 0.16184846039E+01
 0.17273435116E+01 0.19544528816E+01 0.23207464953E+01 0.28611210699E+01 0.36240953910E+01
 0.46667220073E+01 0.60444254240E+01 0.77969111103E+01 0.99318901005E+01 0.12407677145E+02
 0.15114933258E+02 0.17860836927E+02 0.20367891944E+02 0.22335138215E+02 0.22872901258E+02
 0.22335231522E+02 0.20817643083E+02 0.18572365324E+02 0.15925494444E+02 0.13189697037E+02
 0.10607466501E+02 0.83326024899E+01 0.64375186010E+01 0.49314198429E+01 0.37810845325E+01
 0.29310145238E+01 0.23206541514E+01 0.18965323668E+01 0.16184612669E+01 0.14605997615E+01
 0.14093543207E+01 0.14606074856E+01 0.16184846039E+01 0.18965739256E+01 0.23207001625E+01
 0.29310387436E+01 0.37810673505E+01 0.49313697252E+01 0.64374736973E+01 0.83325998922E+01
 0.10607500469E+02 0.13189713118E+02 0.15925438518E+02 0.18572237134E+02 0.20817498146E+02
 0.22253602311E+02 0.22253653848E+02 0.21220877045E+02 0.19330756618E+02 0.16875888868E+02
 0.14180325344E+02 0.11526197340E+02 0.91145332503E+01 0.70584993662E+01 0.53957765786E+01
 0.41088187912E+01 0.31472366335E+01 0.24486433195E+01 0.19544319818E+01 0.16184612669E+01
 0.14093452192E+01 0.13088163528E+01 0.13088105854E+01 0.14093543207E+01 0.16185085552E+01
 0.19544669418E+01 0.24485905999E+01 0.31471094737E+01 0.41087145657E+01 0.53957410976E+01
 0.70584714681E+01 0.91144734667E+01 0.11526197116E+02 0.14180483334E+02 0.16876123657E+02
 0.19330874944E+02 0.21220832218E+02 0.22207108558E+02 0.21683126405E+02 0.20201495794E+02
 0.18002714155E+02 0.15402616713E+02 0.12710209262E+02 0.10170057964E+02 0.79394176260E+01
 0.60918168869E+01 0.46341521994E+01 0.35287543113E+01 0.27159190143E+01 0.21330895610E+01
 0.17273784516E+01 0.14605997615E+01 0.13088163528E+01 0.12594963905E+01 0.13088163528E+01
 0.14605997615E+01 0.17273784516E+01 0.21330895610E+01 0.27159190143E+01 0.35287543113E+01
 0.46341521994E+01 0.60918168869E+01 0.79394176260E+01 0.10170057964E+02 0.12710209262E+02
 0.15402616713E+02 0.18002714155E+02 0.20201495794E+02 0.21683126405E+02 0.22253602311E+02
 0.21220832218E+02 0.19330874944E+02 0.16876123657E+02 0.14180483334E+02 0.11526197116E+02
 0.91144734667E+01 0.70584714681E+01 0.53957410976E+01 0.41087145657E+01 0.31471094737E+01
 0.24485905999E+01 0.19544669418E+01 0.16185085552E+01 0.14093543207E+01 0.13088105854E+01
 0.13088163528E+01 0.14093452192E+01 0.16184612669E+01 0.19544319818E+01 0.24486433195E+01
 0.31472366335E+01 0.41088187912E+01 0.53957765786E+01 0.70584993662E+01 0.91145332503E+01
 0.11526197340E+02 0.14180325344E+02 0.16875888868E+02 0.19330756618E+02 0.21220877045E+02
 0.22253653848E+02 0.22335138215E+02 0.20817498146E+02 0.18572237134E+02 0.15925438518E+02
 0.13189713118E+02 0.10607500469E+02 0.83325998922E+01 0.64374736973E+01 0.49313697252E+01
 0.37810673505E+01 0.29310387436E+01 0.23207001625E+01 0.18965739256E+01 0.16184846039E+01
 0.14606074856E+01 0.14093543207E+01 0.14605997615E+01 0.16184612669E+01 0.18965323668E+01
 0.23206541514E+01 0.29310145238E+01 0.37810845325E+01 0.49314198429E+01 0.64375186010E+01
 0.83326024899E+01 0.10607466501E+02 0.13189697037E+02 0.15925494444E+02 0.18572365324E+02
 0.20817643083E+02 0.22335231522E+02 0.22872901258E+02 0.22305640950E+02 0.20367891944E+02
 0.17860836927E+02 0.15114933258E+02 0.12407677145E+02 0.99318901005E+01 0.77969111103E+01
 0.60444254240E+01 0.46667220073E+01 0.36240953910E+01 0.28611210699E+01 0.23207464953E+01
 0.19544528816E+01 0.17273435116E+01 0.16184846039E+01 0.16185085552E+01 0.17273784516E+01
 0.19544319818E+01 0.23206541514E+01 0.28610137883E+01 0.36240343569E+01 0.46667019162E+01
 0.60443927413E+01 0.77968456481E+01 0.99318382308E+01 0.12407706638E+02 0.15115078853E+02
 0.17861091894E+02 0.20368207874E+02 0.22305915360E+02 0.23365469686E+02 0.23365359134E+02
 0.21939823980E+02 0.19780278274E+02 0.17170038582E+02 0.14441248935E+02 0.11831413384E+02
 0.94865109295E+01 0.74855102452E+01 0.58547608819E+01 0.45809420661E+01 0.36240419786E+01
 0.29310178129E+01 0.24486362046E+01 0.21330733309E+01 0.19544528816E+01 0.18965739256E+01
 0.19544669418E+01 0.21330895610E+01 0.24486433195E+01 0.29310145238E+01 0.36240343569E+01
 0.45809366609E+01 0.58547596120E+01 0.74855047536E+01 0.94864820483E+01 0.11831349569E+02
 0.14441174313E+02 0.17170018342E+02 0.19780362658E+02 0.21939984434E+02 0.23360484235E+02
 0.23855449097E+02 0.23360354087E+02 0.21058154762E+02 0.19017019848E+02 0.16543076463E+02
 0.13941838813E+02 0.11474742137E+02 0.92653541592E+01 0.73835497150E+01 0.58547541252E+01
 0.46667438032E+01 0.37810129785E+01 0.31470753496E+01 0.27158348191E+01 0.24486362046E+01
 0.23207464953E+01 0.23207001625E+01 0.24485905999E+01 0.27159190143E+01 0.31472366335E+01
 0.37810845325E+01 0.46667019162E+01 0.58547596120E+01 0.73836854609E+01 0.92654633140E+01
 0.11474639916E+02 0.13941590771E+02 0.16542911341E+02 0.19017009406E+02 0.21058159172E+02
 0.22479807352E+02 0.23201815841E+02 0.23201868389E+02 0.22479878870E+02 0.19833500634E+02
 0.18236455778E+02 0.16079704270E+02 0.13672222120E+02 0.11353666247E+02 0.92655016385E+01
 0.74855444632E+01 0.60444040323E+01 0.49314034063E+01 0.41087873304E+01 0.35287173591E+01
 0.31470753496E+01 0.29310178129E+01 0.28611210699E+01 0.29310387436E+01 0.31471094737E+01
 0.35287543113E+01 0.41088187912E+01 0.49314198429E+01 0.60443927413E+01 0.74855047536E+01
 0.92654633140E+01 0.11353666698E+02 0.13672260646E+02 0.16079747225E+02 0.18236502237E+02
 0.19833600587E+02 0.20800376865E+02 0.21260509560E+02 0.21387834016E+02 0.21260370258E+02
 0.20800211857E+02 0.18747644209E+02 0.17732621373E+02 0.15905920171E+02 0.13672063586E+02
 0.11474762916E+02 0.94867411443E+01 0.77969502874E+01 0.64374618860E+01 0.53957720535E+01
 0.46342653380E+01 0.41087873304E+01 0.37810129785E+01 0.36240419786E+01 0.36240953910E+01
 0.37810673505E+01 0.41087145657E+01 0.46341521994E+01 0.53957765786E+01 0.64375186010E+01
 0.77968456481E+01 0.94864820483E+01 0.11474639916E+02 0.13672260646E+02 0.15906255187E+02
 0.17732829445E+02 0.18747768856E+02 0.18918374461E+02 0.18582562987E+02 0.18237002961E+02
 0.18236794218E+02 0.18582150447E+02 0.18918097453E+02 0.18312806396E+02 0.17732645000E+02
 0.16079691596E+02 0.13941638132E+02 0.11831424958E+02 0.99318864860E+01 0.83326179748E+01
 0.70585056034E+01 0.60918342357E+01 0.53957720535E+01 0.49314034063E+01 0.46667438032E+01
 0.45809420661E+01 0.46667220073E+01 0.49313697252E+01 0.53957410976E+01 0.60918168869E+01
 0.70584993662E+01 0.83326024899E+01 0.99318382308E+01 0.11831349569E+02 0.13941590771E+02
 0.16079747225E+02 0.17732829445E+02 0.18313057496E+02 0.17674213129E+02 0.16246152756E+02
 0.14850890435E+02 0.14277859101E+02 0.14850859729E+02 0.16246042480E+02 0.17674001839E+02
 0.18747543644E+02 0.18236526752E+02 0.16543162225E+02 0.14441369371E+02 0.12407668135E+02
 0.10607313032E+02 0.91144635657E+01 0.79394530440E+01 0.70585056034E+01 0.64374618860E+01
 0.60444040323E+01 0.58547541252E+01 0.58547608819E+01 0.60444254240E+01 0.64374736973E+01
 0.70584714681E+01 0.79394176260E+01 0.91145332503E+01 0.10607466501E+02 0.12407706638E+02
 0.14441174313E+02 0.16542911341E+02 0.18236502237E+02 0.18747768856E+02 0.17674213129E+02
 0.15318940242E+02 0.12656709334E+02 0.10906445177E+02 0.10906553475E+02 0.12656901599E+02
 0.15318966438E+02 0.17674002632E+02 0.19833553308E+02 0.19017209618E+02 0.17170268678E+02
 0.15115201832E+02 0.13189686797E+02 0.11526142710E+02 0.10170019813E+02 0.91144635657E+01
 0.83326179748E+01 0.77969502874E+01 0.74855444632E+01 0.73835497150E+01 0.74855102452E+01
 0.77969111103E+01 0.83325998922E+01 0.91144734667E+01 0.10170057964E+02 0.11526197340E+02
 0.13189697037E+02 0.15115078853E+02 0.17170018342E+02 0.19017009406E+02 0.19833600587E+02
 0.18918374461E+02 0.16246152756E+02 0.12656709334E+02 0.95821374837E+01 0.83731036766E+01
 0.95822726067E+01 0.12656737977E+02 0.16245945491E+02 0.18918113320E+02 0.21058530484E+02
 0.19780709985E+02 0.17861093039E+02 0.15925384634E+02 0.14180405304E+02 0.12710358828E+02
 0.11526142710E+02 0.10607313032E+02 0.99318864860E+01 0.94867411443E+01 0.92655016385E+01
 0.92653541592E+01 0.94865109295E+01 0.99318901005E+01 0.10607500469E+02 0.11526197116E+02
 0.12710209262E+02 0.14180325344E+02 0.15925494444E+02 0.17861091894E+02 0.19780362658E+02
 0.21058159172E+02 0.20800376865E+02 0.18582562987E+02 0.14850890435E+02 0.10906445177E+02
 0.83731036766E+01 0.83732712785E+01 0.10906617464E+02 0.14850632656E+02 0.18582091431E+02
 0.20800279790E+02 0.21940372819E+02 0.20368460744E+02 0.18572340484E+02 0.16875696640E+02
 0.15402446229E+02 0.14180405304E+02 0.13189686797E+02 0.12407668135E+02 0.11831424958E+02
 0.11474762916E+02 0.11353666247E+02 0.11474742137E+02 0.11831413384E+02 0.12407677145E+02
 0.13189713118E+02 0.14180483334E+02 0.15402616713E+02 0.16875888868E+02 0.18572365324E+02
 0.20368207874E+02 0.21939984434E+02 0.22479807352E+02 0.21260509560E+02 0.18237002961E+02
 0.14277859101E+02 0.10906553475E+02 0.95822726067E+01 0.10906617464E+02 0.14277861298E+02
 0.18236921472E+02 0.21260519356E+02 0.22480059125E+02 0.22306031640E+02 0.20817795087E+02
 0.19330736861E+02 0.18002348984E+02 0.16875696640E+02 0.15925384634E+02 0.15115201832E+02
 0.14441369371E+02 0.13941638132E+02 0.13672063586E+02 0.13672222120E+02 0.13941838813E+02
 0.14441248935E+02 0.15114933258E+02 0.15925438518E+02 0.16876123657E+02 0.18002714155E+02
 0.19330756618E+02 0.20817643083E+02 0.22305915360E+02 0.23360484235E+02 0.23201815841E+02
 0.21387834016E+02 0.18236794218E+02 0.14850859729E+02 0.12656901599E+02 0.12656737977E+02
 0.14850632656E+02 0.18236921472E+02 0.21388313444E+02 0.23202264561E+02 0.23360686780E+02
 0.22335160979E+02 0.21220572830E+02 0.20201179887E+02 0.19330736861E+02 0.18572340484E+02
 0.17861093039E+02 0.17170268678E+02 0.16543162225E+02 0.16079691596E+02 0.15905920171E+02
 0.16079704270E+02 0.16543076463E+02 0.17170038582E+02 0.17860836927E+02 0.18572237134E+02
 0.19330874944E+02 0.20201495794E+02 0.21220877045E+02 0.22335231522E+02 0.23365469686E+02
 0.23855449097E+02 0.23201868389E+02 0.21260370258E+02 0.18582150447E+02 0.16246042480E+02
 0.15318966438E+02 0.16245945491E+02 0.18582091431E+02 0.21260519356E+02 0.23202264561E+02
 0.23855912944E+02 0.23365732136E+02 0.22253300435E+02 0.21682553603E+02 0.21220572830E+02
 0.20817795087E+02 0.20368460744E+02 0.19780709985E+02 0.19017209618E+02 0.18236526752E+02
 0.17732645000E+02 0.17732621373E+02 0.18236455778E+02 0.19017019848E+02 0.19780278274E+02
 0.20367891944E+02 0.20817498146E+02 0.21220832218E+02 0.21683126405E+02 0.22253653848E+02
 0.22872901258E+02 0.23365359134E+02 0.23360354087E+02 0.22479878870E+02 0.20800211857E+02
 0.18918097453E+02 0.17674001839E+02 0.17674002632E+02 0.18918113320E+02 0.20800279790E+02
 0.22480059125E+02 0.23360686780E+02 0.23365732136E+02 0.22873011538E+02 0.22253675745E+02
 0.22872539030E+02 0.23364746275E+02 0.23359800593E+02 0.22479712882E+02 0.20800496230E+02
 0.18918549630E+02 0.17674262618E+02 0.17673997374E+02 0.18918074641E+02 0.20800371145E+02
 0.22480097494E+02 0.23360409021E+02 0.23365276142E+02 0.22872871783E+02 0.22253706751E+02
 0.21683131853E+02 0.21220785510E+02 0.20817537999E+02 0.20368024053E+02 0.19780325841E+02
 0.19016910005E+02 0.18236347446E+02 0.17732653386E+02 0.17732706030E+02 0.18236375550E+02
 0.19016753358E+02 0.19780135545E+02 0.20368158149E+02 0.20818109039E+02 0.21221472758E+02
 0.21683520700E+02 0.22872539030E+02 0.23925335377E+02 0.24382423311E+02 0.23614627293E+02
 0.21486179334E+02 0.18592909690E+02 0.16083386337E+02 0.15089559793E+02 0.16083103537E+02
 0.18592552054E+02 0.21486095245E+02 0.23615047854E+02 0.24383208634E+02 0.23926075343E+02
 0.22872920392E+02 0.21727703347E+02 0.20680838701E+02 0.19787709198E+02 0.19008489990E+02
 0.18274110034E+02 0.17556349033E+02 0.16898355915E+02 0.16408010000E+02 0.16223559492E+02
 0.16407946587E+02 0.16898276843E+02 0.17556400588E+02 0.18274434976E+02 0.19009042754E+02
 0.19788268809E+02 0.20681196211E+02 0.21727732899E+02 0.23364746275E+02 0.24382423311E+02
 0.23997022614E+02 0.21756181677E+02 0.18051270046E+02 0.14136706422E+02 0.11617967750E+02
 0.11618018712E+02 0.14136646736E+02 0.18050874217E+02 0.21755768593E+02 0.23997185219E+02
 0.24383227516E+02 0.23365564091E+02 0.21806347805E+02 0.20241153106E+02 0.18844470332E+02
 0.17660373911E+02 0.16658223669E+02 0.15797531725E+02 0.15075519934E+02 0.14536095274E+02
 0.14243470612E+02 0.14243287988E+02 0.14535825715E+02 0.15075581089E+02 0.15797893974E+02
 0.16658556450E+02 0.17660593437E+02 0.18844737457E+02 0.20241363887E+02 0.21806088247E+02
 0.23359800593E+02 0.23614627293E+02 0.21756181677E+02 0.17801418666E+02 0.12826648506E+02
 0.86585579610E+01 0.70315713874E+01 0.86587071241E+01 0.12826515289E+02 0.17800803059E+02
 0.21755534907E+02 0.23614591063E+02 0.23360417313E+02 0.21781100068E+02 0.19858981823E+02
 0.18037185623E+02 0.16455529326E+02 0.15142745383E+02 0.14073795605E+02 0.13222974801E+02
 0.12589926060E+02 0.12194900873E+02 0.12060082137E+02 0.12194706260E+02 0.12589843947E+02
 0.13223114560E+02 0.14073948499E+02 0.15142810096E+02 0.16455646353E+02 0.18037319468E+02
 0.19858780415E+02 0.21780442039E+02 0.22479712882E+02 0.21486179334E+02 0.18051270046E+02
 0.12826648506E+02 0.74986182335E+01 0.41272785263E+01 0.41273703475E+01 0.74987125333E+01
 0.12826430938E+02 0.18050711328E+02 0.21485643347E+02 0.22479614247E+02 0.21450996475E+02
 0.19440033654E+02 0.17337678963E+02 0.15433673780E+02 0.13827947984E+02 0.12532085658E+02
 0.11521250288E+02 0.10771808376E+02 0.10273564310E+02 0.10024569910E+02 0.10024611860E+02
 0.10273630569E+02 0.10771816962E+02 0.11521241505E+02 0.12532178479E+02 0.13828135378E+02
 0.15433739396E+02 0.17337407453E+02 0.19439507083E+02 0.21450606839E+02 0.20800496230E+02
 0.18592909690E+02 0.14136706422E+02 0.86585579610E+01 0.41272785263E+01 0.23691431023E+01
 0.41275297935E+01 0.86586995049E+01 0.14136451720E+02 0.18592394023E+02 0.20800130349E+02
 0.20644594316E+02 0.18909212098E+02 0.16691344613E+02 0.14577355488E+02 0.12739814452E+02
 0.11237463441E+02 0.10064134286E+02 0.91902998865E+01 0.85875034792E+01 0.82349315329E+01
 0.81190768192E+01 0.82349746964E+01 0.85875730897E+01 0.91903799190E+01 0.10064226657E+02
 0.11237566608E+02 0.12739868823E+02 0.14577247794E+02 0.16691040254E+02 0.18908889410E+02
 0.20644556434E+02 0.18918549630E+02 0.16083386337E+02 0.11617967750E+02 0.70315713874E+01
 0.41273703475E+01 0.41275297935E+01 0.70318124773E+01 0.11617886234E+02 0.16082930687E+02
 0.18918077080E+02 0.19514696372E+02 0.18243009396E+02 0.16075432789E+02 0.13857849011E+02
 0.11864425184E+02 0.10198955225E+02 0.88823079939E+01 0.78912235778E+01 0.71892829229E+01
 0.67429175181E+01 0.65267695614E+01 0.65267445460E+01 0.67429017431E+01 0.71893470028E+01
 0.78913156565E+01 0.88823279280E+01 0.10198900869E+02 0.11864353953E+02 0.13857743276E+02
 0.16075253714E+02 0.18242880216E+02 0.19514854770E+02 0.17674262618E+02 0.15089559793E+02
 0.11618018712E+02 0.86587071241E+01 0.74987125333E+01 0.86586995049E+01 0.11617886234E+02
 0.15089272223E+02 0.17673951347E+02 0.18508154028E+02 0.17567217953E+02 0.15528712005E+02
 0.13270645508E+02 0.11182896011E+02 0.93993640465E+01 0.79669863844E+01 0.68748661916E+01
 0.60854782930E+01 0.55571767695E+01 0.52554347958E+01 0.51575279724E+01 0.52554323846E+01
 0.55571620521E+01 0.60854677898E+01 0.68748761118E+01 0.79669774753E+01 0.93992809150E+01
 0.11182754979E+02 0.13270521996E+02 0.15528661986E+02 0.17567273432E+02 0.18508350114E+02
 0.17673997374E+02 0.16083103537E+02 0.14136646736E+02 0.12826515289E+02 0.12826430938E+02
 0.14136451720E+02 0.16082930687E+02 0.17673951347E+02 0.18104393332E+02 0.17131506197E+02
 0.15135679962E+02 0.12842206083E+02 0.10688536984E+02 0.88181126787E+01 0.72937384329E+01
 0.61167916324E+01 0.52527081395E+01 0.46551739510E+01 0.42821443140E+01 0.41034135924E+01
 0.41033997293E+01 0.42821241368E+01 0.46551851306E+01 0.52527543618E+01 0.61168281227E+01
 0.72937249052E+01 0.88180685137E+01 0.10688513649E+02 0.12842205635E+02 0.15135646633E+02
 0.17131417470E+02 0.18104321787E+02 0.18918074641E+02 0.18592552054E+02 0.18050874217E+02
 0.17800803059E+02 0.18050711328E+02 0.18592394023E+02 0.18918077080E+02 0.18508154028E+02
 0.17131506197E+02 0.14990204140E+02 0.12613605984E+02 0.10386618107E+02 0.84394208072E+01
 0.68361822492E+01 0.55851964290E+01 0.46554480275E+01 0.39983470069E+01 0.35659452396E+01
 0.33213405449E+01 0.32422613603E+01 0.33213535896E+01 0.35659676647E+01 0.39983643990E+01
 0.46554546215E+01 0.55852190134E+01 0.68362540088E+01 0.84395265878E+01 0.10386689811E+02
 0.12613575324E+02 0.14990053208E+02 0.17131288786E+02 0.18507986755E+02 0.20800371145E+02
 0.21486095245E+02 0.21755768593E+02 0.21755534907E+02 0.21485643347E+02 0.20800130349E+02
 0.19514696372E+02 0.17567217953E+02 0.15135679962E+02 0.12613605984E+02 0.10285016217E+02
 0.82531633786E+01 0.65721698469E+01 0.52501126966E+01 0.42579352409E+01 0.35459855024E+01
 0.30616724571E+01 0.27620611150E+01 0.26190177262E+01 0.26190735220E+01 0.27621224960E+01
 0.30616034305E+01 0.35458567713E+01 0.42579176835E+01 0.52502022110E+01 0.65722059082E+01
 0.82531039207E+01 0.10285000352E+02 0.12613692888E+02 0.15135718756E+02 0.17567108583E+02
 0.19514630996E+02 0.22480097494E+02 0.23615047854E+02 0.23997185219E+02 0.23614591063E+02
 0.22479614247E+02 0.20644594316E+02 0.18243009396E+02 0.15528712005E+02 0.12842206083E+02
 0.10386618107E+02 0.82531633786E+01 0.64862274301E+01 0.50890244984E+01 0.40316073985E+01
 0.32636529823E+01 0.27295108591E+01 0.23809810990E+01 0.21842430193E+01 0.21206087649E+01
 0.21842518040E+01 0.23809384872E+01 0.27294222920E+01 0.32636016629E+01 0.40316062733E+01
 0.50889702974E+01 0.64860791441E+01 0.82530672658E+01 0.10386724256E+02 0.12842425303E+02
 0.15528824512E+02 0.18243024262E+02 0.20644784094E+02 0.23360409021E+02 0.24383208634E+02
 0.24383227516E+02 0.23360417313E+02 0.21450996475E+02 0.18909212098E+02 0.16075432789E+02
 0.13270645508E+02 0.10688536984E+02 0.84394208072E+01 0.65721698469E+01 0.50890244984E+01
 0.39583609871E+01 0.31283071673E+01 0.25408816430E+01 0.21440014452E+01 0.18988070588E+01
 0.17815166014E+01 0.17814792690E+01 0.18987553124E+01 0.21440184947E+01 0.25409381839E+01
 0.31283064266E+01 0.39582908826E+01 0.50889758535E+01 0.65721963835E+01 0.84394684907E+01
 0.10688544488E+02 0.13270648761E+02 0.16075500214E+02 0.18909323829E+02 0.21451063908E+02
 0.23365276142E+02 0.23926075343E+02 0.23365564091E+02 0.21781100068E+02 0.19440033654E+02
 0.16691344613E+02 0.13857849011E+02 0.11182896011E+02 0.88181126787E+01 0.68361822492E+01
 0.52501126966E+01 0.40316073985E+01 0.31283071673E+01 0.24797709965E+01 0.20302884073E+01
 0.17366307495E+01 0.15704085336E+01 0.15165227716E+01 0.15703986404E+01 0.17366500264E+01
 0.20303469540E+01 0.24798280745E+01 0.31283371572E+01 0.40316428482E+01 0.52501798711E+01
 0.68362298712E+01 0.88180746691E+01 0.11182806546E+02 0.13857802783E+02 0.16691325206E+02
 0.19439891641E+02 0.21780783960E+02 0.22872871783E+02 0.22872920392E+02 0.21806347805E+02
 0.19858981823E+02 0.17337678963E+02 0.14577355488E+02 0.11864425184E+02 0.93993640465E+01
 0.72937384329E+01 0.55851964290E+01 0.42579352409E+01 0.32636529823E+01 0.25408816430E+01
 0.20302884073E+01 0.16840063814E+01 0.14689319366E+01 0.13656778065E+01 0.13656813328E+01
 0.14689463742E+01 0.16840363082E+01 0.20303278140E+01 0.25409135617E+01 0.32636584193E+01
 0.42579041043E+01 0.55851383014E+01 0.72936850668E+01 0.93993515207E+01 0.11864457220E+02
 0.14577387982E+02 0.17337655492E+02 0.19858889555E+02 0.21806238617E+02 0.22253706751E+02
 0.21727703347E+02 0.20241153106E+02 0.18037185623E+02 0.15433673780E+02 0.12739814452E+02
 0.10198955225E+02 0.79669863844E+01 0.61167916324E+01 0.46554480275E+01 0.35459855024E+01
 0.27295108591E+01 0.21440014452E+01 0.17366307495E+01 0.14689319366E+01 0.13166673054E+01
 0.12671827214E+01 0.13166607418E+01 0.14689515706E+01 0.17366727589E+01 0.21440068997E+01
 0.27294425381E+01 0.35458862985E+01 0.46553815585E+01 0.61167554204E+01 0.79669431595E+01
 0.10198938002E+02 0.12739916174E+02 0.15433902175E+02 0.18037408154E+02 0.20241245301E+02
 0.21727695934E+02 0.21683131853E+02 0.20680838701E+02 0.18844470332E+02 0.16455529326E+02
 0.13827947984E+02 0.11237463441E+02 0.88823079939E+01 0.68748661916E+01 0.52527081395E+01
 0.39983470069E+01 0.30616724571E+01 0.23809810990E+01 0.18988070588E+01 0.15704085336E+01
 0.13656778065E+01 0.12671827214E+01 0.12671883486E+01 0.13656814600E+01 0.15703948342E+01
 0.18987898758E+01 0.23809865142E+01 0.30616996463E+01 0.39983703782E+01 0.52527164171E+01
 0.68748758422E+01 0.88823319515E+01 0.11237491280E+02 0.13827969791E+02 0.16455559745E+02
 0.18844528147E+02 0.20680907256E+02 0.21683163514E+02 0.21220785510E+02 0.19787709198E+02
 0.17660373911E+02 0.15142745383E+02 0.12532085658E+02 0.10064134286E+02 0.78912235778E+01
 0.60854782930E+01 0.46551739510E+01 0.35659452396E+01 0.27620611150E+01 0.21842430193E+01
 0.17815166014E+01 0.15165227716E+01 0.13656813328E+01 0.13166607418E+01 0.13656814600E+01
 0.15164740161E+01 0.17814403905E+01 0.21842460759E+01 0.27621825843E+01 0.35660745404E+01
 0.46552066823E+01 0.60854830732E+01 0.78913251636E+01 0.10064264258E+02 0.12532027073E+02
 0.15142472937E+02 0.17660162470E+02 0.19787776501E+02 0.21220973214E+02 0.21727670363E+02
 0.20817537999E+02 0.19008489990E+02 0.16658223669E+02 0.14073795605E+02 0.11521250288E+02
 0.91902998865E+01 0.71892829229E+01 0.55571767695E+01 0.42821443140E+01 0.33213405449E+01
 0.26190177262E+01 0.21206087649E+01 0.17814792690E+01 0.15703986404E+01 0.14689463742E+01
 0.14689515706E+01 0.15703948342E+01 0.17814403905E+01 0.21205481626E+01 0.26189779482E+01
 0.33213423287E+01 0.42821679994E+01 0.55571946319E+01 0.71892893846E+01 0.91903051055E+01
 0.11521263392E+02 0.14073826482E+02 0.16658286498E+02 0.19008585054E+02 0.20817631672E+02