       N       E                     dE             d eps       ncg     rms          rms(c)
DAV:   1    -0.220672980743E+01   -0.22067E+01   -0.19786E+03   928   0.420E+02
DAV:   2    -0.115016104673E+02   -0.92949E+01   -0.87294E+01  1432   0.534E+01
DAV:   3    -0.116206250676E+02   -0.11901E+00   -0.11901E+00  1160   0.737E+00
DAV:   4    -0.116211085370E+02   -0.48347E-03   -0.48347E-03  1392   0.482E-01
DAV:   5    -0.116211092006E+02   -0.66362E-06   -0.66361E-06  1184   0.124E-02    0.256E+00
DAV:   6    -0.115195200429E+02    0.10159E+00   -0.51772E-02  1056   0.111E+00    0.152E+00
DAV:   7    -0.114649260220E+02    0.54594E-01   -0.10966E-01  1072   0.166E+00    0.113E-01
DAV:   8    -0.114651909802E+02   -0.26496E-03   -0.30323E-03   952   0.388E-01    0.246E-02
DAV:   9    -0.114651743336E+02    0.16647E-04   -0.99430E-05   848   0.638E-02
   1 F= -.11465174E+02 E0= -.11465174E+02  d E =-.217035E-09
