 vasp.5.3.5 31Mar14 (build Feb  5 2015 19:39:53) complex                        
  
 executed on              HPCUofA date 2017.11.14  13:07:09
 running on    1 total cores
 distrk:  each k-point on    1 cores,    1 groups
 distr:  one band on NCORES_PER_BAND=   1 cores,    1 groups


--------------------------------------------------------------------------------------------------------


 INCAR:
 POTCAR:   PAW Si 02Apr1999                       
 POTCAR:   PAW Si 02Apr1999                       
   VRHFIN =Si: s2p2                                                             
   LEXCH  = CA                                                                  
   EATOM  =   103.4338 eV,    7.6022 Ry                                         
                                                                                
   TITEL  = PAW Si 02Apr1999                                                    
   LULTRA =        F    use ultrasoft PP ?                                      
   IUNSCR =        1    unscreen: 0-lin 1-nonlin 2-no                           
   RPACOR =    1.500    partial core radius                                     
   POMASS =   28.085; ZVAL   =    4.000    mass and valenz                      
   RCORE  =    1.900    outmost cutoff radius                                   
   RWIGS  =    2.480; RWIGS  =    1.312    wigner-seitz radius (au A)           
   ENMAX  =  245.704; ENMIN  =  184.278 eV                                      
   ICORE  =        2    local potential                                         
   LCOR   =        T    correct aug charges                                     
   LPAW   =        T    paw PP                                                  
   EAUG   =  322.069                                                            
   DEXC   =    -.006                                                            
   RMAX   =    2.941    core radius for proj-oper                               
   RAUG   =    1.300    factor for augmentation sphere                          
   RDEP   =    1.993    core radius for depl-charge                             
   QCUT   =   -4.250; QGAM   =    8.499    optimization parameters              
                                                                                
   Description                                                                  
     l     E      TYP  RCUT    TYP  RCUT                                        
     0   .000     23  1.900                                                     
     0   .000     23  1.900                                                     
     1   .000     23  1.900                                                     
     1   .000     23  1.900                                                     
     2   .000      7  1.900                                                     
  local pseudopotential read in
  partial core-charges read in
  atomic valenz-charges read in
  non local Contribution for L=           0  read in
    real space projection operators read in
  non local Contribution for L=           0  read in
    real space projection operators read in
  non local Contribution for L=           1  read in
    real space projection operators read in
  non local Contribution for L=           1  read in
    real space projection operators read in
    PAW grid and wavefunctions read in
 
   number of l-projection  operators is LMAX  =           4
   number of lm-projection operators is LMMAX =           8
 
 PAW Si 02Apr1999                       :
 energy of atom  1       EATOM= -103.4338
 kinetic energy error for atom=    0.0062 (will be added to EATOM!!)
 
 
 POSCAR: diamond Si:                             
  positions in direct lattice
  velocities in cartesian coordinates
 exchange correlation table for  LEXCH =        2
   RHO(1)=    0.500       N(1)  =     2000
   RHO(2)=  100.500       N(2)  =     4000
 


--------------------------------------------------------------------------------------------------------


 ion  position               nearest neighbor table
   1  0.875  0.875  0.875-   2 2.51   2 2.51   2 2.51   2 2.51
   2  0.125  0.125  0.125-   1 2.51   1 2.51   1 2.51   1 2.51
 
  LATTYP: Found a face centered cubic cell.
 ALAT       =     5.7916597660
  
  Lattice vectors:
  
 A1 = (   0.0000000000,   2.8958298830,   2.8958298830)
 A2 = (   2.8958298830,   0.0000000000,   2.8958298830)
 A3 = (   2.8958298830,   2.8958298830,   0.0000000000)


Analysis of symmetry for initial positions (statically):
=====================================================================
 Subroutine PRICEL returns:
 Original cell was already a primitive cell.
 

 Routine SETGRP: Setting up the symmetry group for a 
 face centered cubic supercell.


 Subroutine GETGRP returns: Found 48 space group operations
 (whereof 12 operations were pure point group operations)
 out of a pool of 48 trial point group operations.


The static configuration has the point symmetry D_3d.
 The point group associated with its full space group is O_h .


Analysis of symmetry for dynamics (positions and initial velocities):
=====================================================================
 Subroutine PRICEL returns:
 Original cell was already a primitive cell.
 

 Routine SETGRP: Setting up the symmetry group for a 
 face centered cubic supercell.


 Subroutine GETGRP returns: Found 48 space group operations
 (whereof 12 operations were pure point group operations)
 out of a pool of 48 trial point group operations.


The dynamic configuration has the point symmetry D_3d.
 The point group associated with its full space group is O_h .
 
 
 KPOINTS: k-points                                

Automatic generation of k-mesh.
Space group operators:
 irot       det(A)        alpha          n_x          n_y          n_z        tau_x        tau_y        tau_z
    1     1.000000     0.000000     1.000000     0.000000     0.000000     0.000000     0.000000     0.000000
    2    -1.000000     0.000000     1.000000     0.000000     0.000000     0.000000     0.000000     0.000000
    3     1.000000   120.000000    -0.577350    -0.577350    -0.577350     0.000000     0.000000     0.000000
    4    -1.000000   120.000000    -0.577350    -0.577350    -0.577350     0.000000     0.000000     0.000000
    5     1.000000   120.000000     0.577350     0.577350     0.577350     0.000000     0.000000     0.000000
    6    -1.000000   120.000000     0.577350     0.577350     0.577350     0.000000     0.000000     0.000000
    7     1.000000   180.000000     0.000000    -0.707107     0.707107     0.000000     0.000000     0.000000
    8    -1.000000   180.000000     0.000000    -0.707107     0.707107     0.000000     0.000000     0.000000
    9     1.000000   180.000000     0.707107    -0.707107     0.000000     0.000000     0.000000     0.000000
   10    -1.000000   180.000000     0.707107    -0.707107     0.000000     0.000000     0.000000     0.000000
   11     1.000000   180.000000     0.707107     0.000000    -0.707107     0.000000     0.000000     0.000000
   12    -1.000000   180.000000     0.707107     0.000000    -0.707107     0.000000     0.000000     0.000000
   13     1.000000    90.000000     0.000000     0.000000    -1.000000     0.500000     0.000000     0.000000
   14    -1.000000    90.000000     0.000000     0.000000    -1.000000     0.500000     0.000000     0.000000
   15     1.000000   180.000000     0.000000     0.707107     0.707107     0.500000     0.000000     0.000000
   16    -1.000000   180.000000     0.000000     0.707107     0.707107     0.500000     0.000000     0.000000
   17     1.000000    90.000000     0.000000     1.000000     0.000000     0.500000     0.000000     0.000000
   18    -1.000000    90.000000     0.000000     1.000000     0.000000     0.500000     0.000000     0.000000
   19     1.000000   180.000000     0.000000     0.000000     1.000000     0.000000     0.000000     0.500000
   20    -1.000000   180.000000     0.000000     0.000000     1.000000     0.000000     0.000000     0.500000
   21     1.000000   120.000000    -0.577350     0.577350     0.577350     0.000000     0.000000     0.500000
   22    -1.000000   120.000000    -0.577350     0.577350     0.577350     0.000000     0.000000     0.500000
   23     1.000000   120.000000    -0.577350     0.577350    -0.577350     0.000000     0.000000     0.500000
   24    -1.000000   120.000000    -0.577350     0.577350    -0.577350     0.000000     0.000000     0.500000
   25     1.000000    90.000000     0.000000     0.000000     1.000000     0.000000     0.500000     0.000000
   26    -1.000000    90.000000     0.000000     0.000000     1.000000     0.000000     0.500000     0.000000
   27     1.000000    90.000000    -1.000000     0.000000     0.000000     0.000000     0.500000     0.000000
   28    -1.000000    90.000000    -1.000000     0.000000     0.000000     0.000000     0.500000     0.000000
   29     1.000000   180.000000     0.707107     0.000000     0.707107     0.000000     0.500000     0.000000
   30    -1.000000   180.000000     0.707107     0.000000     0.707107     0.000000     0.500000     0.000000
   31     1.000000   120.000000     0.577350    -0.577350     0.577350     0.500000     0.000000     0.000000
   32    -1.000000   120.000000     0.577350    -0.577350     0.577350     0.500000     0.000000     0.000000
   33     1.000000   120.000000    -0.577350    -0.577350     0.577350     0.500000     0.000000     0.000000
   34    -1.000000   120.000000    -0.577350    -0.577350     0.577350     0.500000     0.000000     0.000000
   35     1.000000   180.000000     1.000000     0.000000     0.000000     0.500000     0.000000     0.000000
   36    -1.000000   180.000000     1.000000     0.000000     0.000000     0.500000     0.000000     0.000000
   37     1.000000    90.000000     0.000000    -1.000000     0.000000     0.000000     0.000000     0.500000
   38    -1.000000    90.000000     0.000000    -1.000000     0.000000     0.000000     0.000000     0.500000
   39     1.000000   180.000000     0.707107     0.707107     0.000000     0.000000     0.000000     0.500000
   40    -1.000000   180.000000     0.707107     0.707107     0.000000     0.000000     0.000000     0.500000
   41     1.000000    90.000000     1.000000     0.000000     0.000000     0.000000     0.000000     0.500000
   42    -1.000000    90.000000     1.000000     0.000000     0.000000     0.000000     0.000000     0.500000
   43     1.000000   120.000000     0.577350    -0.577350    -0.577350     0.000000     0.500000     0.000000
   44    -1.000000   120.000000     0.577350    -0.577350    -0.577350     0.000000     0.500000     0.000000
   45     1.000000   180.000000     0.000000     1.000000     0.000000     0.000000     0.500000     0.000000
   46    -1.000000   180.000000     0.000000     1.000000     0.000000     0.000000     0.500000     0.000000
   47     1.000000   120.000000     0.577350     0.577350    -0.577350     0.000000     0.500000     0.000000
   48    -1.000000   120.000000     0.577350     0.577350    -0.577350     0.000000     0.500000     0.000000
 
 Subroutine IBZKPT returns following result:
 ===========================================
 
 Found     56 irreducible k-points:
 
 Following reciprocal coordinates:
            Coordinates               Weight
  0.000000  0.000000  0.000000      1.000000
  0.090909  0.000000  0.000000      8.000000
  0.181818  0.000000  0.000000      8.000000
  0.272727  0.000000  0.000000      8.000000
  0.363636  0.000000  0.000000      8.000000
  0.454545  0.000000  0.000000      8.000000
  0.090909  0.090909  0.000000      6.000000
  0.181818  0.090909  0.000000     24.000000
  0.272727  0.090909  0.000000     24.000000
  0.363636  0.090909  0.000000     24.000000
  0.454545  0.090909  0.000000     24.000000
 -0.454545  0.090909  0.000000     24.000000
 -0.363636  0.090909  0.000000     24.000000
 -0.272727  0.090909  0.000000     24.000000
 -0.181818  0.090909  0.000000     24.000000
 -0.090909  0.090909  0.000000     12.000000
  0.181818  0.181818  0.000000      6.000000
  0.272727  0.181818  0.000000     24.000000
  0.363636  0.181818  0.000000     24.000000
  0.454545  0.181818  0.000000     24.000000
 -0.454545  0.181818  0.000000     24.000000
 -0.363636  0.181818  0.000000     24.000000
 -0.272727  0.181818  0.000000     24.000000
 -0.181818  0.181818  0.000000     12.000000
  0.272727  0.272727  0.000000      6.000000
  0.363636  0.272727  0.000000     24.000000
  0.454545  0.272727  0.000000     24.000000
 -0.454545  0.272727  0.000000     24.000000
 -0.363636  0.272727  0.000000     24.000000
 -0.272727  0.272727  0.000000     12.000000
  0.363636  0.363636  0.000000      6.000000
  0.454545  0.363636  0.000000     24.000000
 -0.454545  0.363636  0.000000     24.000000
 -0.363636  0.363636  0.000000     12.000000
  0.454545  0.454545  0.000000      6.000000
 -0.454545  0.454545  0.000000     12.000000
  0.272727  0.181818  0.090909     24.000000
  0.363636  0.181818  0.090909     48.000000
  0.454545  0.181818  0.090909     48.000000
 -0.454545  0.181818  0.090909     48.000000
  0.363636  0.272727  0.090909     24.000000
  0.454545  0.272727  0.090909     48.000000
 -0.454545  0.272727  0.090909     48.000000
 -0.363636  0.272727  0.090909     48.000000
 -0.272727  0.272727  0.090909     48.000000
 -0.181818  0.272727  0.090909     24.000000
  0.454545  0.363636  0.090909     24.000000
 -0.454545  0.363636  0.090909     48.000000
 -0.363636  0.363636  0.090909     48.000000
 -0.272727  0.363636  0.090909     24.000000
 -0.454545  0.454545  0.090909     24.000000
 -0.363636  0.454545  0.090909     24.000000
 -0.454545  0.363636  0.181818     24.000000
 -0.363636  0.363636  0.181818     48.000000
 -0.363636  0.454545  0.181818     24.000000
 -0.272727  0.454545  0.181818     24.000000
 
 Following cartesian coordinates:
            Coordinates               Weight
  0.000000  0.000000  0.000000      1.000000
 -0.092610  0.092610  0.092610      8.000000
 -0.185219  0.185219  0.185219      8.000000
 -0.277829  0.277829  0.277829      8.000000
 -0.370439  0.370439  0.370439      8.000000
 -0.463048  0.463048  0.463048      8.000000
  0.000000  0.000000  0.185219      6.000000
 -0.092610  0.092610  0.277829     24.000000
 -0.185219  0.185219  0.370439     24.000000
 -0.277829  0.277829  0.463048     24.000000
 -0.370439  0.370439  0.555658     24.000000
  0.555658 -0.555658 -0.370439     24.000000
  0.463048 -0.463048 -0.277829     24.000000
  0.370439 -0.370439 -0.185219     24.000000
  0.277829 -0.277829 -0.092610     24.000000
  0.185219 -0.185219  0.000000     12.000000
  0.000000  0.000000  0.370439      6.000000
 -0.092610  0.092610  0.463048     24.000000
 -0.185219  0.185219  0.555658     24.000000
 -0.277829  0.277829  0.648268     24.000000
  0.648268 -0.648268 -0.277829     24.000000
  0.555658 -0.555658 -0.185219     24.000000
  0.463048 -0.463048 -0.092610     24.000000
  0.370439 -0.370439  0.000000     12.000000
  0.000000  0.000000  0.555658      6.000000
 -0.092610  0.092610  0.648268     24.000000
 -0.185219  0.185219  0.740877     24.000000
  0.740877 -0.740877 -0.185219     24.000000
  0.648268 -0.648268 -0.092610     24.000000
  0.555658 -0.555658  0.000000     12.000000
  0.000000  0.000000  0.740877      6.000000
 -0.092610  0.092610  0.833487     24.000000
  0.833487 -0.833487 -0.092610     24.000000
  0.740877 -0.740877  0.000000     12.000000
  0.000000  0.000000  0.926097      6.000000
  0.926097 -0.926097  0.000000     12.000000
  0.000000  0.185219  0.370439     24.000000
 -0.092610  0.277829  0.463048     48.000000
 -0.185219  0.370439  0.555658     48.000000
  0.740877 -0.555658 -0.370439     48.000000
  0.000000  0.185219  0.555658     24.000000
 -0.092610  0.277829  0.648268     48.000000
  0.833487 -0.648268 -0.277829     48.000000
  0.740877 -0.555658 -0.185219     48.000000
  0.648268 -0.463048 -0.092610     48.000000
  0.555658 -0.370439  0.000000     24.000000
 -0.000000  0.185219  0.740877     24.000000
  0.926097 -0.740877 -0.185219     48.000000
  0.833487 -0.648268 -0.092610     48.000000
  0.740877 -0.555658 -0.000000     24.000000
  1.018706 -0.833487 -0.092610     24.000000
  0.926097 -0.740877  0.000000     24.000000
  1.018706 -0.648268 -0.277829     24.000000
  0.926097 -0.555658 -0.185219     48.000000
  1.018706 -0.648268 -0.092610     24.000000
  0.926097 -0.555658  0.000000     24.000000
 


--------------------------------------------------------------------------------------------------------




 Dimension of arrays:
   k-points           NKPTS =     56   k-points in BZ     NKDIM =     56   number of bands    NBANDS=      8
   number of dos      NEDOS =    301   number of ions     NIONS =      2
   non local maximal  LDIM  =      4   non local SUM 2l+1 LMDIM =      8
   total plane-waves  NPLWV =   4096
   max r-space proj   IRMAX =      1   max aug-charges    IRDMAX=   3019
   dimension x,y,z NGX =    16 NGY =   16 NGZ =   16
   dimension x,y,z NGXF=    32 NGYF=   32 NGZF=   32
   support grid    NGXF=    32 NGYF=   32 NGZF=   32
   ions per type =               2
 NGX,Y,Z   is equivalent  to a cutoff of   6.50,  6.50,  6.50 a.u.
 NGXF,Y,Z  is equivalent  to a cutoff of  12.99, 12.99, 12.99 a.u.


 I would recommend the setting:
   dimension x,y,z NGX =    16 NGY =   16 NGZ =   16
 SYSTEM =  diamond Si                              
 POSCAR =  diamond Si:                             

 Startparameter for this run:
   NWRITE =      2    write-flag & timer
   PREC   = normal    normal or accurate (medium, high low for compatibility)
   ISTART =      0    job   : 0-new  1-cont  2-samecut
   ICHARG =      2    charge: 1-file 2-atom 10-const
   ISPIN  =      1    spin polarized calculation?
   LNONCOLLINEAR =      F non collinear calculations
   LSORBIT =      F    spin-orbit coupling
   INIWAV =      1    electr: 0-lowe 1-rand  2-diag
   LASPH  =      F    aspherical Exc in radial PAW
   METAGGA=      F    non-selfconsistent MetaGGA calc.

 Electronic Relaxation 1
   ENCUT  =  240.0 eV  17.64 Ry    4.20 a.u.   5.17  5.17  5.17*2*pi/ulx,y,z
   ENINI  =  240.0     initial cutoff
   ENAUG  =  322.1 eV  augmentation charge cutoff
   NELM   =     60;   NELMIN=  2; NELMDL= -5     # of ELM steps 
   EDIFF  = 0.1E-03   stopping-criterion for ELM
   LREAL  =      F    real-space projection
   NLSPLINE    = F    spline interpolate recip. space projectors
   LCOMPAT=      F    compatible to vasp.4.4
   GGA_COMPAT  = T    GGA compatible to vasp.4.4-vasp.4.6
   LMAXPAW     = -100 max onsite density
   LMAXMIX     =    2 max onsite mixed and CHGCAR
   VOSKOWN=      0    Vosko Wilk Nusair interpolation
   ROPT   =    0.00000
 Ionic relaxation
   EDIFFG = 0.1E-02   stopping-criterion for IOM
   NSW    =      0    number of steps for IOM
   NBLOCK =      1;   KBLOCK =      1    inner block; outer block 
   IBRION =     -1    ionic relax: 0-MD 1-quasi-New 2-CG
   NFREE  =      0    steps in history (QN), initial steepest desc. (CG)
   ISIF   =      2    stress and relaxation
   IWAVPR =     10    prediction:  0-non 1-charg 2-wave 3-comb
   ISYM   =      2    0-nonsym 1-usesym 2-fastsym
   LCORR  =      T    Harris-Foulkes like correction to forces

   POTIM  = 0.5000    time-step for ionic-motion
   TEIN   =    0.0    initial temperature
   TEBEG  =    0.0;   TEEND  =   0.0 temperature during run
   SMASS  =  -3.00    Nose mass-parameter (am)
   estimated Nose-frequenzy (Omega)   =  0.10E-29 period in steps =****** mass=  -0.383E-27a.u.
   SCALEE = 1.0000    scale energy and forces
   NPACO  =    256;   APACO  = 16.0  distance and # of slots for P.C.
   PSTRESS=    0.0 pullay stress

  Mass of Ions in am
   POMASS =  28.09
  Ionic Valenz
   ZVAL   =   4.00
  Atomic Wigner-Seitz radii
   RWIGS  =  -1.00
  virtual crystal weights 
   VCA    =   1.00
   NELECT =       8.0000    total number of electrons
   NUPDOWN=      -1.0000    fix difference up-down

 DOS related values:
   EMIN   =  10.00;   EMAX   =-10.00  energy-range for DOS
   EFERMI =   0.00
   ISMEAR =     0;   SIGMA  =   0.10  broadening in eV -4-tet -1-fermi 0-gaus

 Electronic relaxation 2 (details)
   IALGO  =     38    algorithm
   LDIAG  =      T    sub-space diagonalisation (order eigenvalues)
   LSUBROT=      F    optimize rotation matrix (better conditioning)
   TURBO    =      0    0=normal 1=particle mesh
   IRESTART =      0    0=no restart 2=restart with 2 vectors
   NREBOOT  =      0    no. of reboots
   NMIN     =      0    reboot dimension
   EREF     =   0.00    reference energy to select bands
   IMIX   =      4    mixing-type and parameters
     AMIX     =   0.40;   BMIX     =  1.00
     AMIX_MAG =   1.60;   BMIX_MAG =  1.00
     AMIN     =   0.10
     WC   =   100.;   INIMIX=   1;  MIXPRE=   1;  MAXMIX= -45

 Intra band minimization:
   WEIMIN = 0.0000     energy-eigenvalue tresh-hold
   EBREAK =  0.31E-05  absolut break condition
   DEPER  =   0.30     relativ break condition  

   TIME   =   0.40     timestep for ELM

  volume/ion in A,a.u.               =      24.28       163.88
  Fermi-wavevector in a.u.,A,eV,Ry     =   0.897405  1.695849 10.957256  0.805336
  Thomas-Fermi vector in A             =   2.019985
 
 Write flags
   LWAVE  =      T    write WAVECAR
   LCHARG =      T    write CHGCAR
   LVTOT  =      F    write LOCPOT, total local potential
   LVHAR  =      F    write LOCPOT, Hartree potential only
   LELF   =      F    write electronic localiz. function (ELF)
   LORBIT =      0    0 simple, 1 ext, 2 COOP (PROOUT)


 Dipole corrections
   LMONO  =      F    monopole corrections only (constant potential shift)
   LDIPOL =      F    correct potential (dipole corrections)
   IDIPOL =      0    1-x, 2-y, 3-z, 4-all directions 
   EPSILON=  1.0000000 bulk dielectric constant

 Exchange correlation treatment:
   GGA     =    --    GGA type
   LEXCH   =     2    internal setting for exchange type
   VOSKOWN=      0    Vosko Wilk Nusair interpolation
   LHFCALC =     F    Hartree Fock is set to
   LHFONE  =     F    Hartree Fock one center treatment
   AEXX    =    0.0000 exact exchange contribution

 Linear response parameters
   LEPSILON=     F    determine dielectric tensor
   LRPA    =     F    only Hartree local field effects (RPA)
   LNABLA  =     F    use nabla operator in PAW spheres
   LVEL    =     F    velocity operator in full k-point grid
   LINTERFAST=   F  fast interpolation
   KINTER  =     0    interpolate to denser k-point grid
   CSHIFT  =0.1000    complex shift for real part using Kramers Kronig
   OMEGAMAX=  -1.0    maximum frequency
   DEG_THRESHOLD= 0.2000000E-02 threshold for treating states as degnerate
   RTIME   =    0.100 relaxation time in fs

 Orbital magnetization related:
   ORBITALMAG=     F  switch on orbital magnetization
   LCHIMAG   =     F  perturbation theory with respect to B field
   DQ        =  0.001000  dq finite difference perturbation B field



--------------------------------------------------------------------------------------------------------


 Static calculation
 charge density and potential will be updated during run
 non-spin polarized calculation
 Variant of blocked Davidson
 Davidson routine will perform the subspace rotation
 perform sub-space diagonalisation
    after iterative eigenvector-optimisation
 modified Broyden-mixing scheme, WC =      100.0
 initial mixing is a Kerker type mixing with AMIX =  0.4000 and BMIX =      1.0000
 Hartree-type preconditioning will be used
 using additional bands            4
 reciprocal scheme for non local part
 use partial core corrections
 calculate Harris-corrections to forces 
   (improved forces if not selfconsistent)
 use of overlap-Matrix (Vanderbilt PP)
 Gauss-broadening in eV      SIGMA  =   0.10


--------------------------------------------------------------------------------------------------------


  energy-cutoff  :      240.00
  volume of cell :       48.57
      direct lattice vectors                 reciprocal lattice vectors
     0.000000000  2.895829883  2.895829883    -0.172662076  0.172662076  0.172662076
     2.895829883  0.000000000  2.895829883     0.172662076 -0.172662076  0.172662076
     2.895829883  2.895829883  0.000000000     0.172662076  0.172662076 -0.172662076

  length of vectors
     4.095321895  4.095321895  4.095321895     0.299059489  0.299059489  0.299059489


 
 k-points in units of 2pi/SCALE and weight: k-points                                
   0.00000000  0.00000000  0.00000000       0.001
  -0.09260966  0.09260966  0.09260966       0.006
  -0.18521932  0.18521932  0.18521932       0.006
  -0.27782898  0.27782898  0.27782898       0.006
  -0.37043864  0.37043864  0.37043864       0.006
  -0.46304830  0.46304830  0.46304830       0.006
   0.00000000  0.00000000  0.18521932       0.005
  -0.09260966  0.09260966  0.27782898       0.018
  -0.18521932  0.18521932  0.37043864       0.018
  -0.27782898  0.27782898  0.46304830       0.018
  -0.37043864  0.37043864  0.55565795       0.018
   0.55565795 -0.55565795 -0.37043864       0.018
   0.46304830 -0.46304830 -0.27782898       0.018
   0.37043864 -0.37043864 -0.18521932       0.018
   0.27782898 -0.27782898 -0.09260966       0.018
   0.18521932 -0.18521932  0.00000000       0.009
   0.00000000  0.00000000  0.37043864       0.005
  -0.09260966  0.09260966  0.46304830       0.018
  -0.18521932  0.18521932  0.55565795       0.018
  -0.27782898  0.27782898  0.64826761       0.018
   0.64826761 -0.64826761 -0.27782898       0.018
   0.55565795 -0.55565795 -0.18521932       0.018
   0.46304830 -0.46304830 -0.09260966       0.018
   0.37043864 -0.37043864  0.00000000       0.009
   0.00000000  0.00000000  0.55565795       0.005
  -0.09260966  0.09260966  0.64826761       0.018
  -0.18521932  0.18521932  0.74087727       0.018
   0.74087727 -0.74087727 -0.18521932       0.018
   0.64826761 -0.64826761 -0.09260966       0.018
   0.55565795 -0.55565795  0.00000000       0.009
   0.00000000  0.00000000  0.74087727       0.005
  -0.09260966  0.09260966  0.83348693       0.018
   0.83348693 -0.83348693 -0.09260966       0.018
   0.74087727 -0.74087727  0.00000000       0.009
   0.00000000  0.00000000  0.92609659       0.005
   0.92609659 -0.92609659  0.00000000       0.009
   0.00000000  0.18521932  0.37043864       0.018
  -0.09260966  0.27782898  0.46304830       0.036
  -0.18521932  0.37043864  0.55565795       0.036
   0.74087727 -0.55565795 -0.37043864       0.036
   0.00000000  0.18521932  0.55565795       0.018
  -0.09260966  0.27782898  0.64826761       0.036
   0.83348693 -0.64826761 -0.27782898       0.036
   0.74087727 -0.55565795 -0.18521932       0.036
   0.64826761 -0.46304830 -0.09260966       0.036
   0.55565795 -0.37043864  0.00000000       0.018
  -0.00000000  0.18521932  0.74087727       0.018
   0.92609659 -0.74087727 -0.18521932       0.036
   0.83348693 -0.64826761 -0.09260966       0.036
   0.74087727 -0.55565795 -0.00000000       0.018
   1.01870625 -0.83348693 -0.09260966       0.018
   0.92609659 -0.74087727  0.00000000       0.018
   1.01870625 -0.64826761 -0.27782898       0.018
   0.92609659 -0.55565795 -0.18521932       0.036
   1.01870625 -0.64826761 -0.09260966       0.018
   0.92609659 -0.55565795  0.00000000       0.018
 
 k-points in reciprocal lattice and weights: k-points                                
   0.00000000  0.00000000  0.00000000       0.001
   0.09090909  0.00000000  0.00000000       0.006
   0.18181818  0.00000000  0.00000000       0.006
   0.27272727  0.00000000  0.00000000       0.006
   0.36363636  0.00000000  0.00000000       0.006
   0.45454545  0.00000000  0.00000000       0.006
   0.09090909  0.09090909  0.00000000       0.005
   0.18181818  0.09090909  0.00000000       0.018
   0.27272727  0.09090909  0.00000000       0.018
   0.36363636  0.09090909  0.00000000       0.018
   0.45454545  0.09090909  0.00000000       0.018
  -0.45454545  0.09090909  0.00000000       0.018
  -0.36363636  0.09090909  0.00000000       0.018
  -0.27272727  0.09090909  0.00000000       0.018
  -0.18181818  0.09090909  0.00000000       0.018
  -0.09090909  0.09090909  0.00000000       0.009
   0.18181818  0.18181818  0.00000000       0.005
   0.27272727  0.18181818  0.00000000       0.018
   0.36363636  0.18181818  0.00000000       0.018
   0.45454545  0.18181818  0.00000000       0.018
  -0.45454545  0.18181818  0.00000000       0.018
  -0.36363636  0.18181818  0.00000000       0.018
  -0.27272727  0.18181818  0.00000000       0.018
  -0.18181818  0.18181818  0.00000000       0.009
   0.27272727  0.27272727  0.00000000       0.005
   0.36363636  0.27272727  0.00000000       0.018
   0.45454545  0.27272727  0.00000000       0.018
  -0.45454545  0.27272727  0.00000000       0.018
  -0.36363636  0.27272727  0.00000000       0.018
  -0.27272727  0.27272727  0.00000000       0.009
   0.36363636  0.36363636  0.00000000       0.005
   0.45454545  0.36363636  0.00000000       0.018
  -0.45454545  0.36363636  0.00000000       0.018
  -0.36363636  0.36363636  0.00000000       0.009
   0.45454545  0.45454545  0.00000000       0.005
  -0.45454545  0.45454545  0.00000000       0.009
   0.27272727  0.18181818  0.09090909       0.018
   0.36363636  0.18181818  0.09090909       0.036
   0.45454545  0.18181818  0.09090909       0.036
  -0.45454545  0.18181818  0.09090909       0.036
   0.36363636  0.27272727  0.09090909       0.018
   0.45454545  0.27272727  0.09090909       0.036
  -0.45454545  0.27272727  0.09090909       0.036
  -0.36363636  0.27272727  0.09090909       0.036
  -0.27272727  0.27272727  0.09090909       0.036
  -0.18181818  0.27272727  0.09090909       0.018
   0.45454545  0.36363636  0.09090909       0.018
  -0.45454545  0.36363636  0.09090909       0.036
  -0.36363636  0.36363636  0.09090909       0.036
  -0.27272727  0.36363636  0.09090909       0.018
  -0.45454545  0.45454545  0.09090909       0.018
  -0.36363636  0.45454545  0.09090909       0.018
  -0.45454545  0.36363636  0.18181818       0.018
  -0.36363636  0.36363636  0.18181818       0.036
  -0.36363636  0.45454545  0.18181818       0.018
  -0.27272727  0.45454545  0.18181818       0.018
 
 position of ions in fractional coordinates (direct lattice) 
   0.87500000  0.87500000  0.87500000
   0.12500000  0.12500000  0.12500000
 
 position of ions in cartesian coordinates  (Angst):
   5.06770230  5.06770230  5.06770230
   0.72395747  0.72395747  0.72395747
 


--------------------------------------------------------------------------------------------------------


 k-point  1 :   0.0000 0.0000 0.0000  plane waves:     411
 k-point  2 :   0.0909 0.0000 0.0000  plane waves:     405
 k-point  3 :   0.1818 0.0000 0.0000  plane waves:     402
 k-point  4 :   0.2727 0.0000 0.0000  plane waves:     407
 k-point  5 :   0.3636 0.0000 0.0000  plane waves:     413
 k-point  6 :   0.4545 0.0000 0.0000  plane waves:     410
 k-point  7 :   0.0909 0.0909 0.0000  plane waves:     403
 k-point  8 :   0.1818 0.0909 0.0000  plane waves:     407
 k-point  9 :   0.2727 0.0909 0.0000  plane waves:     407
 k-point 10 :   0.3636 0.0909 0.0000  plane waves:     411
 k-point 11 :   0.4545 0.0909 0.0000  plane waves:     414
 k-point 12 :  -0.4545 0.0909 0.0000  plane waves:     408
 k-point 13 :  -0.3636 0.0909 0.0000  plane waves:     408
 k-point 14 :  -0.2727 0.0909 0.0000  plane waves:     405
 k-point 15 :  -0.1818 0.0909 0.0000  plane waves:     404
 k-point 16 :  -0.0909 0.0909 0.0000  plane waves:     407
 k-point 17 :   0.1818 0.1818 0.0000  plane waves:     407
 k-point 18 :   0.2727 0.1818 0.0000  plane waves:     410
 k-point 19 :   0.3636 0.1818 0.0000  plane waves:     415
 k-point 20 :   0.4545 0.1818 0.0000  plane waves:     408
 k-point 21 :  -0.4545 0.1818 0.0000  plane waves:     409
 k-point 22 :  -0.3636 0.1818 0.0000  plane waves:     408
 k-point 23 :  -0.2727 0.1818 0.0000  plane waves:     412
 k-point 24 :  -0.1818 0.1818 0.0000  plane waves:     409
 k-point 25 :   0.2727 0.2727 0.0000  plane waves:     415
 k-point 26 :   0.3636 0.2727 0.0000  plane waves:     417
 k-point 27 :   0.4545 0.2727 0.0000  plane waves:     417
 k-point 28 :  -0.4545 0.2727 0.0000  plane waves:     413
 k-point 29 :  -0.3636 0.2727 0.0000  plane waves:     410
 k-point 30 :  -0.2727 0.2727 0.0000  plane waves:     411
 k-point 31 :   0.3636 0.3636 0.0000  plane waves:     420
 k-point 32 :   0.4545 0.3636 0.0000  plane waves:     416
 k-point 33 :  -0.4545 0.3636 0.0000  plane waves:     412
 k-point 34 :  -0.3636 0.3636 0.0000  plane waves:     409
 k-point 35 :   0.4545 0.4545 0.0000  plane waves:     412
 k-point 36 :  -0.4545 0.4545 0.0000  plane waves:     420
 k-point 37 :   0.2727 0.1818 0.0909  plane waves:     404
 k-point 38 :   0.3636 0.1818 0.0909  plane waves:     410
 k-point 39 :   0.4545 0.1818 0.0909  plane waves:     407
 k-point 40 :  -0.4545 0.1818 0.0909  plane waves:     411
 k-point 41 :   0.3636 0.2727 0.0909  plane waves:     413
 k-point 42 :   0.4545 0.2727 0.0909  plane waves:     408
 k-point 43 :  -0.4545 0.2727 0.0909  plane waves:     413
 k-point 44 :  -0.3636 0.2727 0.0909  plane waves:     411
 k-point 45 :  -0.2727 0.2727 0.0909  plane waves:     411
 k-point 46 :  -0.1818 0.2727 0.0909  plane waves:     414
 k-point 47 :   0.4545 0.3636 0.0909  plane waves:     418
 k-point 48 :  -0.4545 0.3636 0.0909  plane waves:     409
 k-point 49 :  -0.3636 0.3636 0.0909  plane waves:     411
 k-point 50 :  -0.2727 0.3636 0.0909  plane waves:     406
 k-point 51 :  -0.4545 0.4545 0.0909  plane waves:     412
 k-point 52 :  -0.3636 0.4545 0.0909  plane waves:     415
 k-point 53 :  -0.4545 0.3636 0.1818  plane waves:     410
 k-point 54 :  -0.3636 0.3636 0.1818  plane waves:     409
 k-point 55 :  -0.3636 0.4545 0.1818  plane waves:     411
 k-point 56 :  -0.2727 0.4545 0.1818  plane waves:     404

 maximum and minimum number of plane-waves per node :       420      402

 maximum number of plane-waves:       420
 maximum index in each direction: 
   IXMAX=    5   IYMAX=    5   IZMAX=    5
   IXMIN=   -5   IYMIN=   -5   IZMIN=   -5

 WARNING: aliasing errors must be expected set NGX to  22 to avoid them
 WARNING: aliasing errors must be expected set NGY to  22 to avoid them
 WARNING: aliasing errors must be expected set NGZ to  22 to avoid them
 aliasing errors are usually negligible using standard VASP settings
 and one can safely disregard these warnings

 serial   3D FFT for wavefunctions
 parallel 3D FFT for charge:
    minimum data exchange during FFTs selected (reduces bandwidth)


 total amount of memory used by VASP on root node    37639. kBytes
========================================================================

   base      :      30000. kBytes
   nonl-proj :       1518. kBytes
   fftplans  :       1184. kBytes
   grid      :       1806. kBytes
   one-center:          6. kBytes
   wavefun   :       3125. kBytes
 
     INWAV:  cpu time    0.00: real time    0.00
 Broyden mixing: mesh for mixing (old mesh)
   NGX = 11   NGY = 11   NGZ = 11
  (NGX  = 32   NGY  = 32   NGZ  = 32)
  gives a total of   1331 points

 initial charge density was supplied:
 charge density of overlapping atoms calculated
 number of electron       8.0000000 magnetization 
 keeping initial charge density in first step


--------------------------------------------------------------------------------------------------------


 Maximum index for augmentation-charges         2731 (set IRDMAX)


--------------------------------------------------------------------------------------------------------


 First call to EWALD:  gamma=   0.486
 Maximum number of real-space cells 3x 3x 3
 Maximum number of reciprocal cells 3x 3x 3

 FEWALD executed in parallel
    FEWALD:  cpu time    0.00: real time    0.00


----------------------------------------- Iteration    1(   1)  ---------------------------------------


    POTLOK:  cpu time    0.00: real time    0.01
    SETDIJ:  cpu time    0.00: real time    0.00
     EDDAV:  cpu time    0.26: real time    0.26
       DOS:  cpu time    0.00: real time    0.00
    --------------------------------------------
      LOOP:  cpu time    0.27: real time    0.27

 eigenvalue-minimisations  :   928
 total energy-change (2. order) :-0.2206730E+01  (-0.1978620E+03)
 number of electron       8.0000000 magnetization 
 augmentation part        8.0000000 magnetization 

 Free energy of the ion-electron system (eV)
  ---------------------------------------------------
  alpha Z        PSCENC =         1.95235785
  Ewald energy   TEWEN  =      -214.29089251
  -Hartree energ DENC   =       -14.18165722
  -exchange      EXHF   =         0.00000000
  -V(xc)+E(xc)   XCENC  =       -19.23732995
  PAW double counting   =        67.11795164      -32.28261218
  entropy T*S    EENTRO =        -0.00351855
  eigenvalues    EBANDS =         1.86372998
  atomic energy  EATOM  =       206.85524113
  ---------------------------------------------------
  free energy    TOTEN  =        -2.20672981 eV

  energy without entropy =       -2.20321126  energy(sigma->0) =       -2.20497053


--------------------------------------------------------------------------------------------------------




----------------------------------------- Iteration    1(   2)  ---------------------------------------


     EDDAV:  cpu time    0.39: real time    0.39
       DOS:  cpu time    0.00: real time    0.00
    --------------------------------------------
      LOOP:  cpu time    0.39: real time    0.40

 eigenvalue-minimisations  :  1432
 total energy-change (2. order) :-0.9294881E+01  (-0.8729441E+01)
 number of electron       8.0000000 magnetization 
 augmentation part        8.0000000 magnetization 

 Free energy of the ion-electron system (eV)
  ---------------------------------------------------
  alpha Z        PSCENC =         1.95235785
  Ewald energy   TEWEN  =      -214.29089251
  -Hartree energ DENC   =       -14.18165722
  -exchange      EXHF   =         0.00000000
  -V(xc)+E(xc)   XCENC  =       -19.23732995
  PAW double counting   =        67.11795164      -32.28261218
  entropy T*S    EENTRO =        -0.00000046
  eigenvalues    EBANDS =        -7.43466877
  atomic energy  EATOM  =       206.85524113
  ---------------------------------------------------
  free energy    TOTEN  =       -11.50161047 eV

  energy without entropy =      -11.50161001  energy(sigma->0) =      -11.50161024


--------------------------------------------------------------------------------------------------------




----------------------------------------- Iteration    1(   3)  ---------------------------------------


     EDDAV:  cpu time    0.32: real time    0.32
       DOS:  cpu time    0.00: real time    0.00
    --------------------------------------------
      LOOP:  cpu time    0.32: real time    0.33

 eigenvalue-minimisations  :  1160
 total energy-change (2. order) :-0.1190146E+00  (-0.1190143E+00)
 number of electron       8.0000000 magnetization 
 augmentation part        8.0000000 magnetization 

 Free energy of the ion-electron system (eV)
  ---------------------------------------------------
  alpha Z        PSCENC =         1.95235785
  Ewald energy   TEWEN  =      -214.29089251
  -Hartree energ DENC   =       -14.18165722
  -exchange      EXHF   =         0.00000000
  -V(xc)+E(xc)   XCENC  =       -19.23732995
  PAW double counting   =        67.11795164      -32.28261218
  entropy T*S    EENTRO =        -0.00000000
  eigenvalues    EBANDS =        -7.55368383
  atomic energy  EATOM  =       206.85524113
  ---------------------------------------------------
  free energy    TOTEN  =       -11.62062507 eV

  energy without entropy =      -11.62062507  energy(sigma->0) =      -11.62062507


--------------------------------------------------------------------------------------------------------




----------------------------------------- Iteration    1(   4)  ---------------------------------------


     EDDAV:  cpu time    0.38: real time    0.38
       DOS:  cpu time    0.00: real time    0.00
    --------------------------------------------
      LOOP:  cpu time    0.38: real time    0.38

 eigenvalue-minimisations  :  1392
 total energy-change (2. order) :-0.4834694E-03  (-0.4834693E-03)
 number of electron       8.0000000 magnetization 
 augmentation part        8.0000000 magnetization 

 Free energy of the ion-electron system (eV)
  ---------------------------------------------------
  alpha Z        PSCENC =         1.95235785
  Ewald energy   TEWEN  =      -214.29089251
  -Hartree energ DENC   =       -14.18165722
  -exchange      EXHF   =         0.00000000
  -V(xc)+E(xc)   XCENC  =       -19.23732995
  PAW double counting   =        67.11795164      -32.28261218
  entropy T*S    EENTRO =        -0.00000000
  eigenvalues    EBANDS =        -7.55416730
  atomic energy  EATOM  =       206.85524113
  ---------------------------------------------------
  free energy    TOTEN  =       -11.62110854 eV

  energy without entropy =      -11.62110854  energy(sigma->0) =      -11.62110854


--------------------------------------------------------------------------------------------------------




----------------------------------------- Iteration    1(   5)  ---------------------------------------


     EDDAV:  cpu time    0.33: real time    0.33
       DOS:  cpu time    0.00: real time    0.00
    CHARGE:  cpu time    0.02: real time    0.02
    MIXING:  cpu time    0.00: real time    0.00
    --------------------------------------------
      LOOP:  cpu time    0.34: real time    0.35

 eigenvalue-minimisations  :  1184
 total energy-change (2. order) :-0.6636228E-06  (-0.6636088E-06)
 number of electron       7.9999997 magnetization 
 augmentation part       -0.4910799 magnetization 

 Broyden mixing:
  rms(total) = 0.25563E+00    rms(broyden)= 0.25562E+00
  rms(prec ) = 0.70437E+00
  weight for this iteration     100.00

 Free energy of the ion-electron system (eV)
  ---------------------------------------------------
  alpha Z        PSCENC =         1.95235785
  Ewald energy   TEWEN  =      -214.29089251
  -Hartree energ DENC   =       -14.18165722
  -exchange      EXHF   =         0.00000000
  -V(xc)+E(xc)   XCENC  =       -19.23732995
  PAW double counting   =        67.11795164      -32.28261218
  entropy T*S    EENTRO =        -0.00000000
  eigenvalues    EBANDS =        -7.55416797
  atomic energy  EATOM  =       206.85524113
  ---------------------------------------------------
  free energy    TOTEN  =       -11.62110920 eV

  energy without entropy =      -11.62110920  energy(sigma->0) =      -11.62110920


--------------------------------------------------------------------------------------------------------




----------------------------------------- Iteration    1(   6)  ---------------------------------------


    POTLOK:  cpu time    0.00: real time    0.01
    SETDIJ:  cpu time    0.00: real time    0.00
     EDDAV:  cpu time    0.29: real time    0.29
       DOS:  cpu time    0.00: real time    0.00
    CHARGE:  cpu time    0.02: real time    0.02
    MIXING:  cpu time    0.00: real time    0.00
    --------------------------------------------
      LOOP:  cpu time    0.32: real time    0.32

 eigenvalue-minimisations  :  1056
 total energy-change (2. order) : 0.1015892E+00  (-0.5177228E-02)
 number of electron       7.9999997 magnetization 
 augmentation part       -0.4882228 magnetization 

 Broyden mixing:
  rms(total) = 0.15195E+00    rms(broyden)= 0.15195E+00
  rms(prec ) = 0.41763E+00
  weight for this iteration     100.00

 eigenvalues of (default mixing * dielectric matrix)
  average eigenvalue GAMMA=   2.4492
  2.4492

 Free energy of the ion-electron system (eV)
  ---------------------------------------------------
  alpha Z        PSCENC =         1.95235785
  Ewald energy   TEWEN  =      -214.29089251
  -Hartree energ DENC   =       -15.34382185
  -exchange      EXHF   =         0.00000000
  -V(xc)+E(xc)   XCENC  =       -19.05095524
  PAW double counting   =        69.03801102      -34.25497428
  entropy T*S    EENTRO =        -0.00000000
  eigenvalues    EBANDS =        -6.42448617
  atomic energy  EATOM  =       206.85524113
  ---------------------------------------------------
  free energy    TOTEN  =       -11.51952004 eV

  energy without entropy =      -11.51952004  energy(sigma->0) =      -11.51952004


--------------------------------------------------------------------------------------------------------




----------------------------------------- Iteration    1(   7)  ---------------------------------------


    POTLOK:  cpu time    0.00: real time    0.01
    SETDIJ:  cpu time    0.00: real time    0.00
     EDDAV:  cpu time    0.29: real time    0.29
       DOS:  cpu time    0.00: real time    0.00
    CHARGE:  cpu time    0.02: real time    0.02
    MIXING:  cpu time    0.00: real time    0.00
    --------------------------------------------
      LOOP:  cpu time    0.32: real time    0.33

 eigenvalue-minimisations  :  1072
 total energy-change (2. order) : 0.5459402E-01  (-0.1096610E-01)
 number of electron       7.9999997 magnetization 
 augmentation part       -0.4850720 magnetization 

 Broyden mixing:
  rms(total) = 0.11349E-01    rms(broyden)= 0.11349E-01
  rms(prec ) = 0.29817E-01
  weight for this iteration     100.00

 eigenvalues of (default mixing * dielectric matrix)
  average eigenvalue GAMMA=   2.5072
  2.5072  2.5072

 Free energy of the ion-electron system (eV)
  ---------------------------------------------------
  alpha Z        PSCENC =         1.95235785
  Ewald energy   TEWEN  =      -214.29089251
  -Hartree energ DENC   =       -17.22686591
  -exchange      EXHF   =         0.00000000
  -V(xc)+E(xc)   XCENC  =       -18.71976267
  PAW double counting   =        71.41593291      -36.69550714
  entropy T*S    EENTRO =        -0.00000000
  eigenvalues    EBANDS =        -4.75542967
  atomic energy  EATOM  =       206.85524113
  ---------------------------------------------------
  free energy    TOTEN  =       -11.46492602 eV

  energy without entropy =      -11.46492602  energy(sigma->0) =      -11.46492602


--------------------------------------------------------------------------------------------------------




----------------------------------------- Iteration    1(   8)  ---------------------------------------


    POTLOK:  cpu time    0.00: real time    0.01
    SETDIJ:  cpu time    0.00: real time    0.00
     EDDAV:  cpu time    0.27: real time    0.27
       DOS:  cpu time    0.00: real time    0.00
    CHARGE:  cpu time    0.02: real time    0.02
    MIXING:  cpu time    0.00: real time    0.00
    --------------------------------------------
      LOOP:  cpu time    0.29: real time    0.30

 eigenvalue-minimisations  :   952
 total energy-change (2. order) :-0.2649582E-03  (-0.3032289E-03)
 number of electron       7.9999997 magnetization 
 augmentation part       -0.4861613 magnetization 

 Broyden mixing:
  rms(total) = 0.24576E-02    rms(broyden)= 0.24573E-02
  rms(prec ) = 0.86134E-02
  weight for this iteration     100.00

 eigenvalues of (default mixing * dielectric matrix)
  average eigenvalue GAMMA=   2.0525
  1.2999  2.6985  2.1592

 Free energy of the ion-electron system (eV)
  ---------------------------------------------------
  alpha Z        PSCENC =         1.95235785
  Ewald energy   TEWEN  =      -214.29089251
  -Hartree energ DENC   =       -17.13507396
  -exchange      EXHF   =         0.00000000
  -V(xc)+E(xc)   XCENC  =       -18.71821475
  PAW double counting   =        70.70602565      -35.96710344
  entropy T*S    EENTRO =        -0.00000000
  eigenvalues    EBANDS =        -4.86753094
  atomic energy  EATOM  =       206.85524113
  ---------------------------------------------------
  free energy    TOTEN  =       -11.46519098 eV

  energy without entropy =      -11.46519098  energy(sigma->0) =      -11.46519098


--------------------------------------------------------------------------------------------------------




----------------------------------------- Iteration    1(   9)  ---------------------------------------


    POTLOK:  cpu time    0.01: real time    0.01
    SETDIJ:  cpu time    0.00: real time    0.00
     EDDAV:  cpu time    0.25: real time    0.25
       DOS:  cpu time    0.00: real time    0.00
    --------------------------------------------
      LOOP:  cpu time    0.26: real time    0.27

 eigenvalue-minimisations  :   848
 total energy-change (2. order) : 0.1664658E-04  (-0.9943028E-05)
 number of electron       7.9999997 magnetization 
 augmentation part       -0.4861613 magnetization 

 Free energy of the ion-electron system (eV)
  ---------------------------------------------------
  alpha Z        PSCENC =         1.95235785
  Ewald energy   TEWEN  =      -214.29089251
  -Hartree energ DENC   =       -17.18280367
  -exchange      EXHF   =         0.00000000
  -V(xc)+E(xc)   XCENC  =       -18.71035564
  PAW double counting   =        70.76962282      -36.03260260
  entropy T*S    EENTRO =        -0.00000000
  eigenvalues    EBANDS =        -4.82574170
  atomic energy  EATOM  =       206.85524113
  ---------------------------------------------------
  free energy    TOTEN  =       -11.46517433 eV

  energy without entropy =      -11.46517433  energy(sigma->0) =      -11.46517433


--------------------------------------------------------------------------------------------------------




 average (electrostatic) potential at core
  the test charge radii are     0.9892
  (the norm of the test charge is              1.0000)
       1 -86.9348       2 -86.9348
 
 
 
 E-fermi :   4.3517     XC(G=0):  -8.8997     alpha+bet : -9.9658


 k-point     1 :       0.0000    0.0000    0.0000
  band No.  band energies     occupation 
      1      -6.7823      2.00000
      2       3.9775      2.00000
      3       3.9776      2.00000
      4       3.9776      2.00000
      5       5.1267      0.00000
      6       6.3939      0.00000
      7       6.3939      0.00000
      8       6.3939      0.00000

 k-point     2 :       0.0909    0.0000    0.0000
  band No.  band energies     occupation 
      1      -6.6909      2.00000
      2       2.8878      2.00000
      3       3.8397      2.00000
      4       3.8398      2.00000
      5       5.5995      0.00000
      6       6.5976      0.00000
      7       6.5976      0.00000
      8       6.8517      0.00000

 k-point     3 :       0.1818    0.0000    0.0000
  band No.  band energies     occupation 
      1      -6.4212      2.00000
      2       1.3716      2.00000
      3       3.5497      2.00000
      4       3.5497      2.00000
      5       5.4299      0.00000
      6       7.0109      0.00000
      7       7.0110      0.00000
      8       8.2058      0.00000

 k-point     4 :       0.2727    0.0000    0.0000
  band No.  band energies     occupation 
      1      -5.9904      2.00000
      2      -0.0623      2.00000
      3       3.2673      2.00000
      4       3.2673      2.00000
      5       5.1187      0.00000
      6       7.2967      0.00000
      7       7.2968      0.00000
      8       9.6825      0.00000

 k-point     5 :       0.3636    0.0000    0.0000
  band No.  band energies     occupation 
      1      -5.4499      2.00000
      2      -1.2926      2.00000
      3       3.0604      2.00000
      4       3.0604      2.00000
      5       4.8752      0.00000
      6       7.3419      0.00000
      7       7.3420      0.00000
      8      10.9307      0.00000

 k-point     6 :       0.4545    0.0000    0.0000
  band No.  band energies     occupation 
      1      -4.9729      2.00000
      2      -2.1197      2.00000
      3       2.9543      2.00000
      4       2.9543      2.00000
      5       4.7478      0.00000
      6       7.2991      0.00000
      7       7.2992      0.00000
      8      11.1550      0.00000

 k-point     7 :       0.0909    0.0909    0.0000
  band No.  band energies     occupation 
      1      -6.6602      2.00000
      2       2.9012      2.00000
      3       3.5818      2.00000
      4       3.5818      2.00000
      5       6.1084      0.00000
      6       6.1588      0.00000
      7       6.9396      0.00000
      8       6.9397      0.00000

 k-point     8 :       0.1818    0.0909    0.0000
  band No.  band energies     occupation 
      1      -6.4492      2.00000
      2       1.7322      2.00000
      3       3.2469      2.00000
      4       3.3288      2.00000
      5       6.0405      0.00000
      6       6.4239      0.00000
      7       7.4454      0.00000
      8       7.8922      0.00000

 k-point     9 :       0.2727    0.0909    0.0000
  band No.  band energies     occupation 
      1      -6.0692      2.00000
      2       0.3540      2.00000
      3       2.9693      2.00000
      4       2.9847      2.00000
      5       5.8324      0.00000
      6       6.8055      0.00000
      7       7.8014      0.00000
      8       8.7953      0.00000

 k-point    10 :       0.3636    0.0909    0.0000
  band No.  band energies     occupation 
      1      -5.5555      2.00000
      2      -0.9171      2.00000
      3       2.6455      2.00000
      4       2.8001      2.00000
      5       5.5816      0.00000
      6       7.0747      0.00000
      7       7.8443      0.00000
      8       9.5895      0.00000

 k-point    11 :       0.4545    0.0909    0.0000
  band No.  band energies     occupation 
      1      -5.0215      2.00000
      2      -1.8981      2.00000
      3       2.3898      2.00000
      4       2.7549      2.00000
      5       5.4149      0.00000
      6       7.1518      0.00000
      7       7.7055      0.00000
      8      10.6411      0.00000

 k-point    12 :      -0.4545    0.0909    0.0000
  band No.  band energies     occupation 
      1      -4.8178      2.00000
      2      -2.2139      2.00000
      3       2.2481      2.00000
      4       2.8325      2.00000
      5       5.3648      0.00000
      6       7.2364      0.00000
      7       7.5636      0.00000
      8      11.2779      0.00000

 k-point    13 :      -0.3636    0.0909    0.0000
  band No.  band energies     occupation 
      1      -5.1888      2.00000
      2      -1.6162      2.00000
      3       2.2367      2.00000
      4       3.0204      2.00000
      5       5.4356      0.00000
      6       7.3869      0.00000
      7       7.4663      0.00000
      8      10.7851      0.00000

 k-point    14 :      -0.2727    0.0909    0.0000
  band No.  band energies     occupation 
      1      -5.7391      2.00000
      2      -0.5124      2.00000
      3       2.3680      2.00000
      4       3.2944      2.00000
      5       5.6195      0.00000
      6       7.3249      0.00000
      7       7.4910      0.00000
      8       9.6830      0.00000

 k-point    15 :      -0.1818    0.0909    0.0000
  band No.  band energies     occupation 
      1      -6.2145      2.00000
      2       0.7964      2.00000
      3       2.6595      2.00000
      4       3.6051      2.00000
      5       5.8702      0.00000
      6       7.0100      0.00000
      7       7.2388      0.00000
      8       8.7004      0.00000

 k-point    16 :      -0.0909    0.0909    0.0000
  band No.  band energies     occupation 
      1      -6.5398      2.00000
      2       2.0735      2.00000
      3       3.1720      2.00000
      4       3.8431      2.00000
      5       5.9555      0.00000
      6       6.6518      0.00000
      7       6.7252      0.00000
      8       7.7369      0.00000

 k-point    17 :       0.1818    0.1818    0.0000
  band No.  band energies     occupation 
      1      -6.2967      2.00000
      2       1.4409      2.00000
      3       2.8857      2.00000
      4       2.8858      2.00000
      5       5.5413      0.00000
      6       7.0758      0.00000
      7       8.0770      0.00000
      8       8.0771      0.00000

 k-point    18 :       0.2727    0.1818    0.0000
  band No.  band energies     occupation 
      1      -5.9713      2.00000
      2       0.4760      2.00000
      3       2.4875      2.00000
      4       2.5914      2.00000
      5       5.5780      0.00000
      6       7.0225      0.00000
      7       8.4292      0.00000
      8       8.6020      0.00000

 k-point    19 :       0.3636    0.1818    0.0000
  band No.  band energies     occupation 
      1      -5.4959      2.00000
      2      -0.6469      2.00000
      3       1.9981      2.00000
      4       2.4172      2.00000
      5       5.7503      0.00000
      6       7.3358      0.00000
      7       8.3461      0.00000
      8       8.7663      0.00000

 k-point    20 :       0.4545    0.1818    0.0000
  band No.  band energies     occupation 
      1      -4.9437      2.00000
      2      -1.6533      2.00000
      3       1.5772      2.00000
      4       2.3825      2.00000
      5       5.7428      0.00000
      6       7.6998      0.00000
      7       8.6302      0.00000
      8       8.8754      0.00000

 k-point    21 :      -0.4545    0.1818    0.0000
  band No.  band energies     occupation 
      1      -4.5726      2.00000
      2      -2.2097      2.00000
      3       1.2960      2.00000
      4       2.4856      2.00000
      5       5.7726      0.00000
      6       7.7157      0.00000
      7       8.4060      0.00000
      8      10.1913      0.00000

 k-point    22 :      -0.3636    0.1818    0.0000
  band No.  band energies     occupation 
      1      -4.7918      2.00000
      2      -1.8876      2.00000
      3       1.1898      2.00000
      4       2.7139      2.00000
      5       5.9102      0.00000
      6       7.7791      0.00000
      7       8.1820      0.00000
      8      10.6279      0.00000

 k-point    23 :      -0.2727    0.1818    0.0000
  band No.  band energies     occupation 
      1      -5.3303      2.00000
      2      -0.9890      2.00000
      3       1.3056      2.00000
      4       3.0342      2.00000
      5       6.1225      0.00000
      6       7.8765      0.00000
      7       7.8853      0.00000
      8       9.3757      0.00000

 k-point    24 :      -0.1818    0.1818    0.0000
  band No.  band energies     occupation 
      1      -5.8399      2.00000
      2       0.0085      2.00000
      3       1.7558      2.00000
      4       3.3783      2.00000
      5       6.2559      0.00000
      6       7.4178      0.00000
      7       7.5766      0.00000
      8       8.8114      0.00000

 k-point    25 :       0.2727    0.2727    0.0000
  band No.  band energies     occupation 
      1      -5.6997      2.00000
      2      -0.0012      2.00000
      3       2.2716      2.00000
      4       2.2716      2.00000
      5       5.0384      0.00000
      6       6.5996      0.00000
      7       9.4039      0.00000
      8       9.4039      0.00000

 k-point    26 :       0.3636    0.2727    0.0000
  band No.  band energies     occupation 
      1      -5.2694      2.00000
      2      -0.8093      2.00000
      3       1.8195      2.00000
      4       2.0713      2.00000
      5       5.1595      0.00000
      6       6.3988      0.00000
      7       9.5420      0.00000
      8       9.8594      0.00000

 k-point    27 :       0.4545    0.2727    0.0000
  band No.  band energies     occupation 
      1      -4.7260      2.00000
      2      -1.6581      2.00000
      3       1.2093      2.00000
      4       2.0143      2.00000
      5       5.3521      0.00000
      6       7.0311      0.00000
      7       9.3298      0.00000
      8       9.8470      0.00000

 k-point    28 :      -0.4545    0.2727    0.0000
  band No.  band energies     occupation 
      1      -4.2419      2.00000
      2      -2.2937      2.00000
      3       0.7288      2.00000
      4       2.1051      2.00000
      5       5.4564      0.00000
      6       8.3256      0.00000
      7       9.1570      0.00000
      8       9.5999      0.00000

 k-point    29 :      -0.3636    0.2727    0.0000
  band No.  band energies     occupation 
      1      -4.2945      2.00000
      2      -2.2233      2.00000
      3       0.5050      2.00000
      4       2.3323      2.00000
      5       5.6646      0.00000
      6       9.0496      0.00000
      7       9.2445      0.00000
      8       9.9542      0.00000

 k-point    30 :      -0.2727    0.2727    0.0000
  band No.  band energies     occupation 
      1      -4.8036      2.00000
      2      -1.5960      2.00000
      3       0.6525      2.00000
      4       2.6654      2.00000
      5       5.9641      0.00000
      6       8.6620      0.00000
      7       8.9254      0.00000
      8       9.2781      0.00000

 k-point    31 :       0.3636    0.3636    0.0000
  band No.  band energies     occupation 
      1      -4.8835      2.00000
      2      -1.3892      2.00000
      3       1.8373      2.00000
      4       1.8373      2.00000
      5       4.7521      0.00000
      6       5.7198      0.00000
      7      10.8014      0.00000
      8      10.8014      0.00000

 k-point    32 :       0.4545    0.3636    0.0000
  band No.  band energies     occupation 
      1      -4.3647      2.00000
      2      -2.0815      2.00000
      3       1.4095      2.00000
      4       1.7455      2.00000
      5       4.9518      0.00000
      6       5.7040      0.00000
      7      10.9609      0.00000
      8      11.1515      0.00000

 k-point    33 :      -0.4545    0.3636    0.0000
  band No.  band energies     occupation 
      1      -3.8196      2.00000
      2      -2.6816      2.00000
      3       0.7912      2.00000
      4       1.8050      2.00000
      5       5.1130      0.00000
      6       6.6954      0.00000
      7      10.7776      0.00000
      8      10.9427      0.00000

 k-point    34 :      -0.3636    0.3636    0.0000
  band No.  band energies     occupation 
      1      -3.7973      2.00000
      2      -2.6831      2.00000
      3       0.4023      2.00000
      4       2.0092      2.00000
      5       5.3300      0.00000
      6       8.2035      0.00000
      7      10.3091      0.00000
      8      10.5311      0.00000

 k-point    35 :       0.4545    0.4545    0.0000
  band No.  band energies     occupation 
      1      -3.8708      2.00000
      2      -2.6926      2.00000
      3       1.6145      2.00000
      4       1.6145      2.00000
      5       4.7505      0.00000
      6       5.0724      0.00000
      7      12.1000      0.00000
      8      12.1000      0.00000

 k-point    36 :      -0.4545    0.4545    0.0000
  band No.  band energies     occupation 
      1      -3.3415      2.00000
      2      -3.2316      2.00000
      3       1.2721      2.00000
      4       1.6348      2.00000
      5       4.9216      0.00000
      6       5.4120      0.00000
      7      12.0140      0.00000
      8      12.0284      0.00000

 k-point    37 :       0.2727    0.1818    0.0909
  band No.  band energies     occupation 
      1      -6.1814      2.00000
      2       0.9101      2.00000
      3       2.4659      2.00000
      4       3.2512      2.00000
      5       6.1708      0.00000
      6       6.6333      0.00000
      7       7.8999      0.00000
      8       8.3443      0.00000

 k-point    38 :       0.3636    0.1818    0.0909
  band No.  band energies     occupation 
      1      -5.7530      2.00000
      2      -0.2015      2.00000
      3       1.9477      2.00000
      4       2.9907      2.00000
      5       6.2643      0.00000
      6       6.9035      0.00000
      7       8.2597      0.00000
      8       8.5624      0.00000

 k-point    39 :       0.4545    0.1818    0.0909
  band No.  band energies     occupation 
      1      -5.2128      2.00000
      2      -1.3045      2.00000
      3       1.6774      2.00000
      4       2.7157      2.00000
      5       6.1190      0.00000
      6       7.1170      0.00000
      7       8.3298      0.00000
      8       9.2743      0.00000

 k-point    40 :      -0.4545    0.1818    0.0909
  band No.  band energies     occupation 
      1      -4.7300      2.00000
      2      -2.0909      2.00000
      3       1.5622      2.00000
      4       2.5504      2.00000
      5       6.0226      0.00000
      6       7.0928      0.00000
      7       8.3163      0.00000
      8      10.4736      0.00000

 k-point    41 :       0.3636    0.2727    0.0909
  band No.  band energies     occupation 
      1      -5.5945      2.00000
      2      -0.2883      2.00000
      3       1.8592      2.00000
      4       2.4355      2.00000
      5       5.6924      0.00000
      6       6.9107      0.00000
      7       8.4411      0.00000
      8       9.3084      0.00000

 k-point    42 :       0.4545    0.2727    0.0909
  band No.  band energies     occupation 
      1      -5.0828      2.00000
      2      -1.1898      2.00000
      3       1.3507      2.00000
      4       2.1900      2.00000
      5       6.0003      0.00000
      6       7.3009      0.00000
      7       8.1802      0.00000
      8       9.6821      0.00000

 k-point    43 :      -0.4545    0.2727    0.0909
  band No.  band energies     occupation 
      1      -4.5420      2.00000
      2      -1.9979      2.00000
      3       0.9968      2.00000
      4       2.0685      2.00000
      5       6.0924      0.00000
      6       7.7814      0.00000
      7       8.5716      0.00000
      8       9.6808      0.00000

 k-point    44 :      -0.3636    0.2727    0.0909
  band No.  band energies     occupation 
      1      -4.3400      2.00000
      2      -2.2646      2.00000
      3       0.8056      2.00000
      4       2.1393      2.00000
      5       6.2320      0.00000
      6       7.6200      0.00000
      7       9.4374      0.00000
      8      10.1190      0.00000

 k-point    45 :      -0.2727    0.2727    0.0909
  band No.  band energies     occupation 
      1      -4.7365      2.00000
      2      -1.7246      2.00000
      3       0.8293      2.00000
      4       2.3764      2.00000
      5       6.4659      0.00000
      6       7.4941      0.00000
      7       8.8719      0.00000
      8       9.5936      0.00000

 k-point    46 :      -0.1818    0.2727    0.0909
  band No.  band energies     occupation 
      1      -5.2872      2.00000
      2      -0.9104      2.00000
      3       1.1743      2.00000
      4       2.7093      2.00000
      5       6.6974      0.00000
      6       7.0904      0.00000
      7       8.2970      0.00000
      8       9.0704      0.00000

 k-point    47 :       0.4545    0.3636    0.0909
  band No.  band energies     occupation 
      1      -4.7970      2.00000
      2      -1.5037      2.00000
      3       1.4580      2.00000
      4       1.7926      2.00000
      5       5.4018      0.00000
      6       6.2049      0.00000
      7       9.5430      0.00000
      8      10.7712      0.00000

 k-point    48 :      -0.4545    0.3636    0.0909
  band No.  band energies     occupation 
      1      -4.2392      2.00000
      2      -2.1984      2.00000
      3       0.9397      2.00000
      4       1.6478      2.00000
      5       5.7204      0.00000
      6       6.8844      0.00000
      7       9.2585      0.00000
      8      11.0213      0.00000

 k-point    49 :      -0.3636    0.3636    0.0909
  band No.  band energies     occupation 
      1      -3.8773      2.00000
      2      -2.5942      2.00000
      3       0.5213      2.00000
      4       1.7397      2.00000
      5       5.8932      0.00000
      6       8.2864      0.00000
      7       8.9877      0.00000
      8      10.3073      0.00000

 k-point    50 :      -0.2727    0.3636    0.0909
  band No.  band energies     occupation 
      1      -4.1942      2.00000
      2      -2.2516      2.00000
      3       0.4358      2.00000
      4       2.0046      2.00000
      5       6.1743      0.00000
      6       8.5916      0.00000
      7       9.1048      0.00000
      8       9.9395      0.00000

 k-point    51 :      -0.4545    0.4545    0.0909
  band No.  band energies     occupation 
      1      -3.8177      2.00000
      2      -2.7001      2.00000
      3       1.3014      2.00000
      4       1.4100      2.00000
      5       5.3708      0.00000
      6       5.6373      0.00000
      7      10.8633      0.00000
      8      11.8327      0.00000

 k-point    52 :      -0.3636    0.4545    0.0909
  band No.  band energies     occupation 
      1      -3.4233      2.00000
      2      -3.0678      2.00000
      3       0.7886      2.00000
      4       1.4669      2.00000
      5       5.6191      0.00000
      6       6.7022      0.00000
      7      10.5164      0.00000
      8      10.6502      0.00000

 k-point    53 :      -0.4545    0.3636    0.1818
  band No.  band energies     occupation 
      1      -4.5520      2.00000
      2      -1.8221      2.00000
      3       0.8421      2.00000
      4       1.8232      2.00000
      5       6.8302      0.00000
      6       7.3590      0.00000
      7       7.8398      0.00000
      8      10.6712      0.00000

 k-point    54 :      -0.3636    0.3636    0.1818
  band No.  band energies     occupation 
      1      -4.0419      2.00000
      2      -2.4055      2.00000
      3       0.6084      2.00000
      4       1.5678      2.00000
      5       7.1481      0.00000
      6       7.4549      0.00000
      7       8.5383      0.00000
      8      10.0909      0.00000

 k-point    55 :      -0.3636    0.4545    0.1818
  band No.  band energies     occupation 
      1      -3.6836      2.00000
      2      -2.7516      2.00000
      3       0.8183      2.00000
      4       1.1465      2.00000
      5       6.7829      0.00000
      6       6.9882      0.00000
      7       8.9250      0.00000
      8      10.3001      0.00000

 k-point    56 :      -0.2727    0.4545    0.1818
  band No.  band energies     occupation 
      1      -3.5330      2.00000
      2      -2.8842      2.00000
      3       0.6034      2.00000
      4       1.1732      2.00000
      5       7.0931      0.00000
      6       8.3930      0.00000
      7       8.5742      0.00000
      8       8.7432      0.00000


--------------------------------------------------------------------------------------------------------


 soft charge-density along one line, spin component           1
         0         1         2         3         4         5         6         7         8         9
 total charge-density along one line
 
 pseudopotential strength for first ion, spin component:           1
 19.677   0.001  -0.000  -0.000  -0.000   0.000   0.000   0.000
  0.001   0.006   0.000   0.000   0.000  -0.000  -0.000  -0.000
 -0.000   0.000   4.386  -0.000  -0.000  -0.003   0.000   0.000
 -0.000   0.000  -0.000   4.386  -0.000   0.000  -0.003   0.000
 -0.000   0.000  -0.000  -0.000   4.386   0.000   0.000  -0.003
  0.000  -0.000  -0.003   0.000   0.000   0.005  -0.000  -0.000
  0.000  -0.000   0.000  -0.003   0.000  -0.000   0.005  -0.000
  0.000  -0.000   0.000   0.000  -0.003  -0.000  -0.000   0.005
 total augmentation occupancy for first ion, spin component:           1
  1.549  -0.627   0.000   0.000  -0.000  -0.000  -0.000  -0.000
 -0.627   0.575  -0.000   0.000   0.000  -0.000  -0.000  -0.000
 -0.000  -0.000   0.904  -0.000   0.000  -0.512  -0.000  -0.000
 -0.000   0.000  -0.000   0.904   0.000  -0.000  -0.512   0.000
 -0.000  -0.000   0.000   0.000   0.904  -0.000  -0.000  -0.512
  0.000   0.000  -0.512   0.000   0.000   0.334   0.000  -0.000
  0.000  -0.000   0.000  -0.512   0.000   0.000   0.334   0.000
  0.000   0.000   0.000   0.000  -0.512   0.000  -0.000   0.334


------------------------ aborting loop because EDIFF is reached ----------------------------------------


    CHARGE:  cpu time    0.02: real time    0.02
    FORLOC:  cpu time    0.00: real time    0.00
    FORNL :  cpu time    0.04: real time    0.04
    STRESS:  cpu time    0.13: real time    0.13
    FORCOR:  cpu time    0.01: real time    0.01
    FORHAR:  cpu time    0.00: real time    0.01
    MIXING:  cpu time    0.00: real time    0.00
    OFIELD:  cpu time    0.00: real time    0.00

  FORCE on cell =-STRESS in cart. coord.  units (eV):
  Direction    XX          YY          ZZ          XY          YZ          ZX
  --------------------------------------------------------------------------------------
  Alpha Z     1.95236     1.95236     1.95236
  Ewald     -71.43033   -71.43033   -71.43033    -0.00000    -0.00000     0.00000
  Hartree     5.73040     5.73040     5.73040     0.00000     0.00000     0.00000
  E(xc)     -24.88707   -24.88707   -24.88707    -0.00000    -0.00000    -0.00000
  Local     -33.58863   -33.58863   -33.58864     0.00008     0.00008     0.00008
  n-local    78.94623    80.35437    74.51714     1.98782    -1.08464     0.39913
  augment   -12.60484   -12.60484   -12.60484    -0.00007    -0.00007    -0.00007
  Kinetic    55.17009    53.74960    50.07232     3.60692    -0.89383     0.99599
  Fock        0.00000     0.00000     0.00000     0.00000     0.00000     0.00000
  -------------------------------------------------------------------------------------
  Total      -3.89154    -3.89154    -3.89154    -0.00000     0.00000    -0.00000
  in kB    -128.37560  -128.37560  -128.37560    -0.00000     0.00000    -0.00000
  external pressure =     -128.38 kB  Pullay stress =        0.00 kB


 VOLUME and BASIS-vectors are now :
 -----------------------------------------------------------------------------
  energy-cutoff  :      240.00
  volume of cell :       48.57
      direct lattice vectors                 reciprocal lattice vectors
     0.000000000  2.895829883  2.895829883    -0.172662076  0.172662076  0.172662076
     2.895829883  0.000000000  2.895829883     0.172662076 -0.172662076  0.172662076
     2.895829883  2.895829883  0.000000000     0.172662076  0.172662076 -0.172662076

  length of vectors
     4.095321895  4.095321895  4.095321895     0.299059489  0.299059489  0.299059489


 FORCES acting on ions
    electron-ion (+dipol)            ewald-force                    non-local-force                 convergence-correction
 -----------------------------------------------------------------------------------------------
   -.280E-05 -.280E-05 0.691E-05   0.387E-14 -.280E-14 0.285E-14   -.343E-15 0.382E-16 0.208E-16   -.472E-06 -.472E-06 -.472E-06
   0.280E-05 0.280E-05 -.691E-05   -.389E-14 0.265E-14 -.259E-14   0.160E-15 -.173E-16 -.167E-15   0.472E-06 0.472E-06 0.472E-06
 -----------------------------------------------------------------------------------------------
   -.110E-12 -.213E-13 0.466E-13   -.152E-16 -.150E-15 0.267E-15   -.184E-15 0.208E-16 -.146E-15   0.552E-15 -.258E-15 -.500E-15
 
 
 POSITION                                       TOTAL-FORCE (eV/Angst)
 -----------------------------------------------------------------------------------
      5.06770      5.06770      5.06770         0.000000      0.000000      0.000000
      0.72396      0.72396      0.72396        -0.000000     -0.000000     -0.000000
 -----------------------------------------------------------------------------------
    total drift:                               -0.000000     -0.000000      0.000000


--------------------------------------------------------------------------------------------------------



  FREE ENERGIE OF THE ION-ELECTRON SYSTEM (eV)
  ---------------------------------------------------
  free  energy   TOTEN  =       -11.46517433 eV

  energy  without entropy=      -11.46517433  energy(sigma->0) =      -11.46517433
 


--------------------------------------------------------------------------------------------------------


    POTLOK:  cpu time    0.01: real time    0.01


--------------------------------------------------------------------------------------------------------


 writing wavefunctions
     LOOP+:  cpu time    3.17: real time    3.28
    4ORBIT:  cpu time    0.00: real time    0.00

 total amount of memory used by VASP on root node    37639. kBytes
========================================================================

   base      :      30000. kBytes
   nonl-proj :       1518. kBytes
   fftplans  :       1184. kBytes
   grid      :       1806. kBytes
   one-center:          6. kBytes
   wavefun   :       3125. kBytes
 
  
  
 General timing and accounting informations for this job:
 ========================================================
  
                  Total CPU time used (sec):        3.365
                            User time (sec):        3.338
                          System time (sec):        0.027
                         Elapsed time (sec):        3.509
  
                   Maximum memory used (kb):       38692.
                   Average memory used (kb):           0.
  
                          Minor page faults:         5237
                          Major page faults:            0
                 Voluntary context switches:          263
