fcc Si                                  
   4.10000000000000     
     0.445088    0.445088    0.000000
     0.000000    0.445088    0.445088
     0.445088    0.000000    0.445088
   Si
     1
Direct
  0.000000  0.000000  0.000000
 
   20   20   20
 -.22099413842E+01 -.15983604367E+01 0.80163194683E-02 0.20345324356E+01 0.38292255056E+01
 0.49425631459E+01 0.52772307193E+01 0.50560047884E+01 0.46571028551E+01 0.43584335061E+01
 0.42499066339E+01 0.43584335061E+01 0.46571028551E+01 0.50560047884E+01 0.52772307193E+01
 0.49425631459E+01 0.38292255056E+01 0.20345324356E+01 0.80163194683E-02 -.15983604367E+01
 -.15983604367E+01 -.49132726320E+00 0.13105056866E+01 0.31817859125E+01 0.45689888359E+01
 0.52093948689E+01 0.51851043105E+01 0.48157321083E+01 0.44505862235E+01 0.42423821093E+01
 0.42423793449E+01 0.44505898292E+01 0.48157413296E+01 0.51850975550E+01 0.52094054520E+01
 0.45690791252E+01 0.31819023892E+01 0.13104937234E+01 -.49148147878E+00 -.15984563120E+01
 0.80163194683E-02 0.13105056866E+01 0.29254136336E+01 0.43050360712E+01 0.50868500321E+01
 0.52170144867E+01 0.49133400815E+01 0.45113035511E+01 0.42229474896E+01 0.41191385357E+01
 0.42229183905E+01 0.45112924811E+01 0.49133810215E+01 0.52170743459E+01 0.50868685220E+01
 0.43050285563E+01 0.29254817663E+01 0.13106897946E+01 0.81915411161E-02 -.49148147878E+00
 0.20345324356E+01 0.31817859125E+01 0.43050360712E+01 0.50288762021E+01 0.52086202180E+01
 0.49563543587E+01 0.45434038532E+01 0.41993877619E+01 0.40086011900E+01 0.40085769804E+01
 0.41993516843E+01 0.45434272693E+01 0.49564443363E+01 0.52086740483E+01 0.50288253819E+01
 0.43050142161E+01 0.31819967522E+01 0.20349112445E+01 0.13106897946E+01 0.13104937234E+01
 0.38292255056E+01 0.45689888359E+01 0.50868500321E+01 0.52086202180E+01 0.49668631573E+01
 0.45557941439E+01 0.41806764216E+01 0.39271543684E+01 0.38378919289E+01 0.39271273639E+01
 0.41806750263E+01 0.45558484006E+01 0.49669380518E+01 0.52086654168E+01 0.50868738632E+01
 0.45690473838E+01 0.38293344701E+01 0.31819967522E+01 0.29254817663E+01 0.31819023892E+01
 0.49425631459E+01 0.52093948689E+01 0.52170144867E+01 0.49563543587E+01 0.45557941439E+01
 0.41736141211E+01 0.38845033142E+01 0.37300372396E+01 0.37300332482E+01 0.38844976172E+01
 0.41736253324E+01 0.45558374543E+01 0.49564226551E+01 0.52170742095E+01 0.52094146383E+01
 0.49425436940E+01 0.45690473838E+01 0.43050142161E+01 0.43050285563E+01 0.45690791252E+01
 0.52772307193E+01 0.51851043105E+01 0.49133400815E+01 0.45434038532E+01 0.41806764216E+01
 0.38845033142E+01 0.36934141607E+01 0.36277161128E+01 0.36934248104E+01 0.38845016351E+01
 0.41806622249E+01 0.45434054347E+01 0.49133686860E+01 0.51851396036E+01 0.52772507315E+01
 0.52094146383E+01 0.50868738632E+01 0.50288253819E+01 0.50868685220E+01 0.52094054520E+01
 0.50560047884E+01 0.48157321083E+01 0.45113035511E+01 0.41993877619E+01 0.39271543684E+01
 0.37300372396E+01 0.36277161128E+01 0.36277200040E+01 0.37300391996E+01 0.39271355704E+01
 0.41993505701E+01 0.45112838884E+01 0.48157614156E+01 0.50560669868E+01 0.51851396036E+01
 0.52170742095E+01 0.52086654168E+01 0.52086740483E+01 0.52170743459E+01 0.51850975550E+01
 0.46571028551E+01 0.44505862235E+01 0.42229474896E+01 0.40086011900E+01 0.38378919289E+01
 0.37300332482E+01 0.36934248104E+01 0.37300391996E+01 0.38378891300E+01 0.40085871238E+01
 0.42229414795E+01 0.44506087143E+01 0.46571414702E+01 0.48157614156E+01 0.49133686860E+01
 0.49564226551E+01 0.49669380518E+01 0.49564443363E+01 0.49133810215E+01 0.48157413296E+01
 0.43584335061E+01 0.42423821093E+01 0.41191385357E+01 0.40085769804E+01 0.39271273639E+01
 0.38844976172E+01 0.38845016351E+01 0.39271355704E+01 0.40085871238E+01 0.41191587519E+01
 0.42424173599E+01 0.43584710848E+01 0.44506087143E+01 0.45112838884E+01 0.45434054347E+01
 0.45558374543E+01 0.45558484006E+01 0.45434272693E+01 0.45112924811E+01 0.44505898292E+01
 0.42499066339E+01 0.42423793449E+01 0.42229183905E+01 0.41993516843E+01 0.41806750263E+01
 0.41736253324E+01 0.41806622249E+01 0.41993505701E+01 0.42229414795E+01 0.42424173599E+01
 0.42499477068E+01 0.42424173599E+01 0.42229414795E+01 0.41993505701E+01 0.41806622249E+01
 0.41736253324E+01 0.41806750263E+01 0.41993516843E+01 0.42229183905E+01 0.42423793449E+01
 0.43584335061E+01 0.44505898292E+01 0.45112924811E+01 0.45434272693E+01 0.45558484006E+01
 0.45558374543E+01 0.45434054347E+01 0.45112838884E+01 0.44506087143E+01 0.43584710848E+01
 0.42424173599E+01 0.41191587519E+01 0.40085871238E+01 0.39271355704E+01 0.38845016351E+01
 0.38844976172E+01 0.39271273639E+01 0.40085769804E+01 0.41191385357E+01 0.42423821093E+01
 0.46571028551E+01 0.48157413296E+01 0.49133810215E+01 0.49564443363E+01 0.49669380518E+01
 0.49564226551E+01 0.49133686860E+01 0.48157614156E+01 0.46571414702E+01 0.44506087143E+01
 0.42229414795E+01 0.40085871238E+01 0.38378891300E+01 0.37300391996E+01 0.36934248104E+01
 0.37300332482E+01 0.38378919289E+01 0.40086011900E+01 0.42229474896E+01 0.44505862235E+01
 0.50560047884E+01 0.51850975550E+01 0.52170743459E+01 0.52086740483E+01 0.52086654168E+01
 0.52170742095E+01 0.51851396036E+01 0.50560669868E+01 0.48157614156E+01 0.45112838884E+01
 0.41993505701E+01 0.39271355704E+01 0.37300391996E+01 0.36277200040E+01 0.36277161128E+01
 0.37300372396E+01 0.39271543684E+01 0.41993877619E+01 0.45113035511E+01 0.48157321083E+01
 0.52772307193E+01 0.52094054520E+01 0.50868685220E+01 0.50288253819E+01 0.50868738632E+01
 0.52094146383E+01 0.52772507315E+01 0.51851396036E+01 0.49133686860E+01 0.45434054347E+01
 0.41806622249E+01 0.38845016351E+01 0.36934248104E+01 0.36277161128E+01 0.36934141607E+01
 0.38845033142E+01 0.41806764216E+01 0.45434038532E+01 0.49133400815E+01 0.51851043105E+01
 0.49425631459E+01 0.45690791252E+01 0.43050285563E+01 0.43050142161E+01 0.45690473838E+01
 0.49425436940E+01 0.52094146383E+01 0.52170742095E+01 0.49564226551E+01 0.45558374543E+01
 0.41736253324E+01 0.38844976172E+01 0.37300332482E+01 0.37300372396E+01 0.38845033142E+01
 0.41736141211E+01 0.45557941439E+01 0.49563543587E+01 0.52170144867E+01 0.52093948689E+01
 0.38292255056E+01 0.31819023892E+01 0.29254817663E+01 0.31819967522E+01 0.38293344701E+01
 0.45690473838E+01 0.50868738632E+01 0.52086654168E+01 0.49669380518E+01 0.45558484006E+01
 0.41806750263E+01 0.39271273639E+01 0.38378919289E+01 0.39271543684E+01 0.41806764216E+01
 0.45557941439E+01 0.49668631573E+01 0.52086202180E+01 0.50868500321E+01 0.45689888359E+01
 0.20345324356E+01 0.13104937234E+01 0.13106897946E+01 0.20349112445E+01 0.31819967522E+01
 0.43050142161E+01 0.50288253819E+01 0.52086740483E+01 0.49564443363E+01 0.45434272693E+01
 0.41993516843E+01 0.40085769804E+01 0.40086011900E+01 0.41993877619E+01 0.45434038532E+01
 0.49563543587E+01 0.52086202180E+01 0.50288762021E+01 0.43050360712E+01 0.31817859125E+01
 0.80163194683E-02 -.49148147878E+00 0.81915411161E-02 0.13106897946E+01 0.29254817663E+01
 0.43050285563E+01 0.50868685220E+01 0.52170743459E+01 0.49133810215E+01 0.45112924811E+01
 0.42229183905E+01 0.41191385357E+01 0.42229474896E+01 0.45113035511E+01 0.49133400815E+01
 0.52170144867E+01 0.50868500321E+01 0.43050360712E+01 0.29254136336E+01 0.13105056866E+01
 -.15983604367E+01 -.15984563120E+01 -.49148147878E+00 0.13104937234E+01 0.31819023892E+01
 0.45690791252E+01 0.52094054520E+01 0.51850975550E+01 0.48157413296E+01 0.44505898292E+01
 0.42423793449E+01 0.42423821093E+01 0.44505862235E+01 0.48157321083E+01 0.51851043105E+01
 0.52093948689E+01 0.45689888359E+01 0.31817859125E+01 0.13105056866E+01 -.49132726320E+00
 -.15985754257E+01 -.49119942079E+00 0.13108391842E+01 0.31820295473E+01 0.45690094362E+01
 0.52093531647E+01 0.51851859874E+01 0.48158722925E+01 0.44506116290E+01 0.42423142302E+01
 0.42423851877E+01 0.44506859212E+01 0.48157714628E+01 0.51850084532E+01 0.52093374547E+01
 0.45691284874E+01 0.31819500130E+01 0.13103472454E+01 -.49185626817E+00 -.15988812599E+01
 -.49119942079E+00 0.91104391581E+00 0.26597225497E+01 0.41728368126E+01 0.50600431750E+01
 0.52541889717E+01 0.49753027151E+01 0.45733169647E+01 0.42813247317E+01 0.41758721464E+01
 0.42812978541E+01 0.45732395272E+01 0.49751997253E+01 0.52541623014E+01 0.50601392390E+01
 0.41728713339E+01 0.26593933378E+01 0.91033723882E+00 -.49181639606E+00 -.10279935646E+01
 0.13108391842E+01 0.26597225497E+01 0.40106716017E+01 0.49332404838E+01 0.52476468080E+01
 0.50584888106E+01 0.46538018985E+01 0.43024256900E+01 0.41059016671E+01 0.41058927380E+01
 0.43023801735E+01 0.46537215354E+01 0.50584491999E+01 0.52477048790E+01 0.49333070468E+01
 0.40105627304E+01 0.26593754505E+01 0.13104317154E+01 0.46759799688E+00 0.46777989482E+00
 0.31820295473E+01 0.41728368126E+01 0.49332404838E+01 0.52349918697E+01 0.50879895309E+01
 0.46963120005E+01 0.43104029391E+01 0.40456750532E+01 0.39519173252E+01 0.40457710399E+01
 0.43104296573E+01 0.46962257359E+01 0.50879343706E+01 0.52350437843E+01 0.49332909600E+01
 0.41727808651E+01 0.31819129567E+01 0.23444372557E+01 0.20170486464E+01 0.23445163274E+01
 0.45690094362E+01 0.50600431750E+01 0.52476468080E+01 0.50879895309E+01 0.47091065275E+01
 0.43121450581E+01 0.40058256299E+01 0.38403786785E+01 0.38404290746E+01 0.40059056831E+01
 0.43121446834E+01 0.47090329367E+01 0.50879524814E+01 0.52477013527E+01 0.50601224355E+01
 0.45690215727E+01 0.39883001250E+01 0.35995854409E+01 0.35996189583E+01 0.39883527311E+01
 0.52093531647E+01 0.52541889717E+01 0.50584888106E+01 0.46963120005E+01 0.43121450581E+01
 0.39920253519E+01 0.37827312802E+01 0.37102709670E+01 0.37827294366E+01 0.39920241173E+01
 0.43121365655E+01 0.46962912695E+01 0.50584778109E+01 0.52542042562E+01 0.52093708389E+01
 0.49813120738E+01 0.47298604043E+01 0.46224570715E+01 0.47298889359E+01 0.49813252274E+01
 0.51851859874E+01 0.49753027151E+01 0.46538018985E+01 0.43104029391E+01 0.40058256299E+01
 0.37827312802E+01 0.36660331933E+01 0.36660275753E+01 0.37827298552E+01 0.40058443750E+01
 0.43104187206E+01 0.46537603536E+01 0.49751977620E+01 0.51850996611E+01 0.52415312723E+01
 0.51900569956E+01 0.51265095009E+01 0.51264518948E+01 0.51899560194E+01 0.52415120499E+01
 0.48158722925E+01 0.45733169647E+01 0.43024256900E+01 0.40456750532E+01 0.38403786785E+01
 0.37102709670E+01 0.36660275753E+01 0.37103011332E+01 0.38404365336E+01 0.40457174484E+01
 0.43023848358E+01 0.45731843456E+01 0.48157371776E+01 0.49894785764E+01 0.50733232605E+01
 0.50930153233E+01 0.50925622202E+01 0.50929077137E+01 0.50732258064E+01 0.49895026374E+01
 0.44506116290E+01 0.42813247317E+01 0.41059016671E+01 0.39519173252E+01 0.38404290746E+01
 0.37827294366E+01 0.37827298552E+01 0.38404365336E+01 0.39519367747E+01 0.41059179350E+01
 0.42813170203E+01 0.44505810191E+01 0.45884976925E+01 0.46816691542E+01 0.47315752394E+01
 0.47498713490E+01 0.47498777142E+01 0.47315940993E+01 0.46816991420E+01 0.45885342252E+01
 0.42423142302E+01 0.41758721464E+01 0.41058927380E+01 0.40457710399E+01 0.40059056831E+01
 0.39920241173E+01 0.40058443750E+01 0.40457174484E+01 0.41059179350E+01 0.41759727210E+01
 0.42424069894E+01 0.42932624911E+01 0.43229044783E+01 0.43338989120E+01 0.43345782968E+01
 0.43336077006E+01 0.43346197871E+01 0.43339749626E+01 0.43229700999E+01 0.42932530735E+01
 0.42423851877E+01 0.42812978541E+01 0.43023801735E+01 0.43104296573E+01 0.43121446834E+01
 0.43121365655E+01 0.43104187206E+01 0.43023848358E+01 0.42813170203E+01 0.42424069894E+01
 0.41863574979E+01 0.41204848754E+01 0.40565260098E+01 0.40065178277E+01 0.39793260867E+01
 0.39793284980E+01 0.40065181503E+01 0.40565163407E+01 0.41204675153E+01 0.41863376016E+01
 0.44506859212E+01 0.45732395272E+01 0.46537215354E+01 0.46962257359E+01 0.47090329367E+01
 0.46962912695E+01 0.46537603536E+01 0.45731843456E+01 0.44505810191E+01 0.42932624911E+01
 0.41204848754E+01 0.39575453051E+01 0.38273835877E+01 0.37449477767E+01 0.37169438780E+01
 0.37449574198E+01 0.38273506596E+01 0.39574635025E+01 0.41204333478E+01 0.42933098492E+01
 0.48157714628E+01 0.49751997253E+01 0.50584491999E+01 0.50879343706E+01 0.50879524814E+01
 0.50584778109E+01 0.49751977620E+01 0.48157371776E+01 0.45884976925E+01 0.43229044783E+01
 0.40565260098E+01 0.38273835877E+01 0.36632682122E+01 0.35787190090E+01 0.35787229265E+01
 0.36632745802E+01 0.38273823601E+01 0.40565211849E+01 0.43229133146E+01 0.45885294975E+01
 0.51850084532E+01 0.52541623014E+01 0.52477048790E+01 0.52350437843E+01 0.52477013527E+01
 0.52542042562E+01 0.51850996611E+01 0.49894785764E+01 0.46816691542E+01 0.43338989120E+01
 0.40065178277E+01 0.37449477767E+01 0.35787190090E+01 0.35220124242E+01 0.35786887828E+01
 0.37449422742E+01 0.40065759469E+01 0.43339802805E+01 0.46816918720E+01 0.49894129533E+01
 0.52093374547E+01 0.50601392390E+01 0.49333070468E+01 0.49332909600E+01 0.50601224355E+01
 0.52093708389E+01 0.52415312723E+01 0.50733232605E+01 0.47315752394E+01 0.43345782968E+01
 0.39793260867E+01 0.37169438780E+01 0.35787229265E+01 0.35786887828E+01 0.37168938200E+01
 0.39793380717E+01 0.43346401514E+01 0.47316010975E+01 0.50732698883E+01 0.52414518964E+01
 0.45691284874E+01 0.41728713339E+01 0.40105627304E+01 0.41727808651E+01 0.45690215727E+01
 0.49813120738E+01 0.51900569956E+01 0.50930153233E+01 0.47498713490E+01 0.43336077006E+01
 0.39793284980E+01 0.37449574198E+01 0.36632745802E+01 0.37449422742E+01 0.39793380717E+01
 0.43336310767E+01 0.47498431511E+01 0.50929236471E+01 0.51899869102E+01 0.49813414064E+01
 0.31819500130E+01 0.26593933378E+01 0.26593754505E+01 0.31819129567E+01 0.39883001250E+01
 0.47298604043E+01 0.51265095009E+01 0.50925622202E+01 0.47498777142E+01 0.43346197871E+01
 0.40065181503E+01 0.38273506596E+01 0.38273823601E+01 0.40065759469E+01 0.43346401514E+01
 0.47498431511E+01 0.50925070807E+01 0.51264718587E+01 0.47298554839E+01 0.39883257077E+01
 0.13103472454E+01 0.91033723882E+00 0.13104317154E+01 0.23444372557E+01 0.35995854409E+01
 0.46224570715E+01 0.51264518948E+01 0.50929077137E+01 0.47315940993E+01 0.43339749626E+01
 0.40565163407E+01 0.39574635025E+01 0.40565211849E+01 0.43339802805E+01 0.47316010975E+01
 0.50929236471E+01 0.51264718587E+01 0.46224513992E+01 0.35995242609E+01 0.23443319108E+01
 -.49185626817E+00 -.49181639606E+00 0.46759799688E+00 0.20170486464E+01 0.35996189583E+01
 0.47298889359E+01 0.51899560194E+01 0.50732258064E+01 0.46816991420E+01 0.43229700999E+01
 0.41204675153E+01 0.41204333478E+01 0.43229133146E+01 0.46816918720E+01 0.50732698883E+01
 0.51899869102E+01 0.47298554839E+01 0.35995242609E+01 0.20169285119E+01 0.46749707896E+00
 -.15988812599E+01 -.10279935646E+01 0.46777989482E+00 0.23445163274E+01 0.39883527311E+01
 0.49813252274E+01 0.52415120499E+01 0.49895026374E+01 0.45885342252E+01 0.42932530735E+01
 0.41863376016E+01 0.42933098492E+01 0.45885294975E+01 0.49894129533E+01 0.52414518964E+01
 0.49813414064E+01 0.39883257077E+01 0.23443319108E+01 0.46749707896E+00 -.10282003347E+01
 0.76864194328E-02 0.13103895307E+01 0.29255282221E+01 0.43051988669E+01 0.50869040152E+01
 0.52170059159E+01 0.49133917395E+01 0.45114030515E+01 0.42229902581E+01 0.41191193215E+01
 0.42229312792E+01 0.45113605603E+01 0.49134237900E+01 0.52170528352E+01 0.50868476232E+01
 0.43050669133E+01 0.29255357493E+01 0.13106495746E+01 0.79776481706E-02 -.49183659254E+00
 0.13103895307E+01 0.26595369237E+01 0.40107923638E+01 0.49334141591E+01 0.52476660495E+01
 0.50584317888E+01 0.46538388151E+01 0.43025384206E+01 0.41059512281E+01 0.41058643802E+01
 0.43023860163E+01 0.46538000403E+01 0.50585151910E+01 0.52476990632E+01 0.49332838099E+01
 0.40106085924E+01 0.26594907965E+01 0.13104927788E+01 0.46743594306E+00 0.46736359708E+00
 0.29255282221E+01 0.40107923638E+01 0.48631774353E+01 0.52343254212E+01 0.51255439008E+01
 0.47441272918E+01 0.43552835894E+01 0.40869978097E+01 0.39916421580E+01 0.40869257446E+01
 0.43552229821E+01 0.47441306275E+01 0.51255603122E+01 0.52342693279E+01 0.48630467919E+01
 0.40106719176E+01 0.29254868170E+01 0.20167777951E+01 0.16627918478E+01 0.20167664581E+01
 0.43051988669E+01 0.49334141591E+01 0.52343254212E+01 0.51430733193E+01 0.47860363578E+01
 0.43838994790E+01 0.40696190389E+01 0.38987982010E+01 0.38988212072E+01 0.40696485709E+01
 0.43838871149E+01 0.47859986621E+01 0.51430290274E+01 0.52342485530E+01 0.49333173923E+01
 0.43051635509E+01 0.35995205594E+01 0.31360269609E+01 0.31359862151E+01 0.35994697449E+01
 0.50869040152E+01 0.52476660495E+01 0.51255439008E+01 0.47860363578E+01 0.43927953904E+01
 0.40596338278E+01 0.38397070594E+01 0.37631961361E+01 0.38397087827E+01 0.40596120101E+01
 0.43927518265E+01 0.47860050683E+01 0.51255386290E+01 0.52476581294E+01 0.50868722815E+01
 0.47298622377E+01 0.43770951435E+01 0.42312666935E+01 0.43771221524E+01 0.47299044664E+01
 0.52170059159E+01 0.50584317888E+01 0.47441272918E+01 0.43838994790E+01 0.40596338278E+01
 0.38196769229E+01 0.36933111868E+01 0.36932756454E+01 0.38196026531E+01 0.40595740589E+01
 0.43838741957E+01 0.47441354448E+01 0.50584680352E+01 0.52170263713E+01 0.51899733077E+01
 0.50523064114E+01 0.49342648805E+01 0.49343254477E+01 0.50524198633E+01 0.51900295875E+01
 0.49133917395E+01 0.46538388151E+01 0.43552835894E+01 0.40696190389E+01 0.38397070594E+01
 0.36933111868E+01 0.36433975584E+01 0.36933284307E+01 0.38397096983E+01 0.40695799640E+01
 0.43552137590E+01 0.46537748536E+01 0.49133630845E+01 0.50732538017E+01 0.51200776728E+01
 0.51023179974E+01 0.50863414059E+01 0.51023037758E+01 0.51200572761E+01 0.50732466514E+01
 0.45114030515E+01 0.43025384206E+01 0.40869978097E+01 0.38987982010E+01 0.37631961361E+01
 0.36932756454E+01 0.36933284307E+01 0.37632951283E+01 0.38988304139E+01 0.40869125616E+01
 0.43023924766E+01 0.45112972573E+01 0.46816412732E+01 0.47937522989E+01 0.48451561101E+01
 0.48588742988E+01 0.48588393970E+01 0.48450750208E+01 0.47936859601E+01 0.46816522262E+01
 0.42229902581E+01 0.41059512281E+01 0.39916421580E+01 0.38988212072E+01 0.38397087827E+01
 0.38196026531E+01 0.38397096983E+01 0.38988304139E+01 0.39916508061E+01 0.41059360473E+01
 0.42229471375E+01 0.43228749107E+01 0.43926073596E+01 0.44307050945E+01 0.44458404780E+01
 0.44492145541E+01 0.44458364621E+01 0.44307067533E+01 0.43926290141E+01 0.43229192922E+01
 0.41191193215E+01 0.41058643802E+01 0.40869257446E+01 0.40696485709E+01 0.40596120101E+01
 0.40595740589E+01 0.40695799640E+01 0.40869125616E+01 0.41059360473E+01 0.41192081905E+01
 0.41204837027E+01 0.41081157434E+01 0.40864349794E+01 0.40640302095E+01 0.40499707673E+01
 0.40499697670E+01 0.40640526960E+01 0.40865029070E+01 0.41081790722E+01 0.41204679160E+01
 0.42229312792E+01 0.43023860163E+01 0.43552229821E+01 0.43838871149E+01 0.43927518265E+01
 0.43838741957E+01 0.43552137590E+01 0.43023924766E+01 0.42229471375E+01 0.41204837027E+01
 0.40060658905E+01 0.38957341321E+01 0.38055566536E+01 0.37473403706E+01 0.37273343222E+01
 0.37473365940E+01 0.38055563395E+01 0.38957394641E+01 0.40060672351E+01 0.41204733582E+01
 0.45113605603E+01 0.46538000403E+01 0.47441306275E+01 0.47859986621E+01 0.47860050683E+01
 0.47441354448E+01 0.46537748536E+01 0.45112972573E+01 0.43228749107E+01 0.41081157434E+01
 0.38957341321E+01 0.37144866473E+01 0.35853010917E+01 0.35189460773E+01 0.35189472692E+01
 0.35852885114E+01 0.37144472347E+01 0.38957011906E+01 0.41081356368E+01 0.43229418103E+01
 0.49134237900E+01 0.50585151910E+01 0.51255603122E+01 0.51430290274E+01 0.51255386290E+01
 0.50584680352E+01 0.49133630845E+01 0.46816412732E+01 0.43926073596E+01 0.40864349794E+01
 0.38055566536E+01 0.35853010917E+01 0.34472003077E+01 0.34004474696E+01 0.34471942756E+01
 0.35852974838E+01 0.38055586284E+01 0.40864426628E+01 0.43926290141E+01 0.46816886895E+01
 0.52170528352E+01 0.52476990632E+01 0.52342693279E+01 0.52342485530E+01 0.52476581294E+01
 0.52170263713E+01 0.50732538017E+01 0.47937522989E+01 0.44307050945E+01 0.40640302095E+01
 0.37473403706E+01 0.35189460773E+01 0.34004474696E+01 0.34004416689E+01 0.35189376698E+01
 0.37473479787E+01 0.40640551684E+01 0.44307300572E+01 0.47937631132E+01 0.50732607021E+01
 0.50868476232E+01 0.49332838099E+01 0.48630467919E+01 0.49333173923E+01 0.50868722815E+01
 0.51899733077E+01 0.51200776728E+01 0.48451561101E+01 0.44458404780E+01 0.40499707673E+01
 0.37273343222E+01 0.35189472692E+01 0.34471942756E+01 0.35189376698E+01 0.37273142272E+01
 0.40499520212E+01 0.44458485721E+01 0.48451995352E+01 0.51201298329E+01 0.51899929360E+01
 0.43050669133E+01 0.40106085924E+01 0.40106719176E+01 0.43051635509E+01 0.47298622377E+01
 0.50523064114E+01 0.51023179974E+01 0.48588742988E+01 0.44492145541E+01 0.40499697670E+01
 0.37473365940E+01 0.35852885114E+01 0.35852974838E+01 0.37473479787E+01 0.40499520212E+01
 0.44491708567E+01 0.48588682433E+01 0.51024020540E+01 0.50524167935E+01 0.47298727343E+01
 0.29255357493E+01 0.26594907965E+01 0.29254868170E+01 0.35995205594E+01 0.43770951435E+01
 0.49342648805E+01 0.50863414059E+01 0.48588393970E+01 0.44458364621E+01 0.40640526960E+01
 0.38055563395E+01 0.37144472347E+01 0.38055586284E+01 0.40640551684E+01 0.44458485721E+01
 0.48588682433E+01 0.50863740324E+01 0.49342865255E+01 0.43771221524E+01 0.35995718364E+01
 0.13106495746E+01 0.13104927788E+01 0.20167777951E+01 0.31360269609E+01 0.42312666935E+01
 0.49343254477E+01 0.51023037758E+01 0.48450750208E+01 0.44307067533E+01 0.40865029070E+01
 0.38957394641E+01 0.38957011906E+01 0.40864426628E+01 0.44307300572E+01 0.48451995352E+01
 0.51024020540E+01 0.49342865255E+01 0.42311989981E+01 0.31361453728E+01 0.20170627375E+01
 0.79776481706E-02 0.46743594306E+00 0.16627918478E+01 0.31359862151E+01 0.43771221524E+01
 0.50524198633E+01 0.51200572761E+01 0.47936859601E+01 0.43926290141E+01 0.41081790722E+01
 0.40060672351E+01 0.41081356368E+01 0.43926290141E+01 0.47937631132E+01 0.51201298329E+01
 0.50524167935E+01 0.43771221524E+01 0.31361453728E+01 0.16631203293E+01 0.46771875892E+00
 -.49183659254E+00 0.46736359708E+00 0.20167664581E+01 0.35994697449E+01 0.47299044664E+01
 0.51900295875E+01 0.50732466514E+01 0.46816522262E+01 0.43229192922E+01 0.41204679160E+01
 0.41204733582E+01 0.43229418103E+01 0.46816886895E+01 0.50732607021E+01 0.51899929360E+01
 0.47298727343E+01 0.35995718364E+01 0.20170627375E+01 0.46771875892E+00 -.49167520134E+00
 0.20346334694E+01 0.31817135246E+01 0.43048631686E+01 0.50287710962E+01 0.52086408263E+01
 0.49564030549E+01 0.45433890561E+01 0.41993399675E+01 0.40085932649E+01 0.40086058879E+01
 0.41993601881E+01 0.45434009042E+01 0.49564266891E+01 0.52086964259E+01 0.50288616951E+01
 0.43050142701E+01 0.31819559708E+01 0.20348991344E+01 0.13107832054E+01 0.13106632681E+01
 0.31817135246E+01 0.41725769708E+01 0.49331595547E+01 0.52350154366E+01 0.50879895228E+01
 0.46962753096E+01 0.43103959858E+01 0.40457126213E+01 0.39519506558E+01 0.40457751959E+01
 0.43104323183E+01 0.46962551445E+01 0.50879821510E+01 0.52350808733E+01 0.49333057498E+01
 0.41728065592E+01 0.31820013618E+01 0.23445688146E+01 0.20170913754E+01 0.23443496014E+01
 0.43048631686E+01 0.49331595547E+01 0.52342855883E+01 0.51431219896E+01 0.47860143907E+01
 0.43838219413E+01 0.40695890756E+01 0.38988320657E+01 0.38988532879E+01 0.40696456609E+01
 0.43838786111E+01 0.47860209640E+01 0.51430825326E+01 0.52342959376E+01 0.49333258394E+01
 0.43051735208E+01 0.35996290629E+01 0.31362330884E+01 0.31361055399E+01 0.35993223741E+01
 0.50287710962E+01 0.52350154366E+01 0.51431219896E+01 0.48149078146E+01 0.44196757829E+01
 0.40825433274E+01 0.38593551743E+01 0.37815965998E+01 0.38593568546E+01 0.40825922679E+01
 0.44197621934E+01 0.48149415912E+01 0.51430597527E+01 0.52349649986E+01 0.50288983702E+01
 0.46225868488E+01 0.42314017941E+01 0.40709347033E+01 0.42311316625E+01 0.46222787969E+01
 0.52086408263E+01 0.50879895228E+01 0.47860143907E+01 0.44196757829E+01 0.40866233267E+01
 0.38388202049E+01 0.37078910722E+01 0.37078611737E+01 0.38387811168E+01 0.40866557968E+01
 0.44197675717E+01 0.47860612211E+01 0.50879379578E+01 0.52085805532E+01 0.51265040364E+01
 0.49343551600E+01 0.47823494090E+01 0.47822636440E+01 0.49341981949E+01 0.51264448433E+01
 0.49564030549E+01 0.46962753096E+01 0.43838219413E+01 0.40825433274E+01 0.38388202049E+01
 0.36830203857E+01 0.36297356051E+01 0.36829544290E+01 0.38387750839E+01 0.40825706444E+01
 0.43838843310E+01 0.46963142549E+01 0.49564061277E+01 0.50929160697E+01 0.51022759904E+01
 0.50506694424E+01 0.50211643221E+01 0.50507093955E+01 0.51023217581E+01 0.50929411360E+01
 0.45433890561E+01 0.43103959858E+01 0.40695890756E+01 0.38593551743E+01 0.37078910722E+01
 0.36297356051E+01 0.36297259843E+01 0.37078699154E+01 0.38593394826E+01 0.40695929370E+01
 0.43104281276E+01 0.45434365257E+01 0.47315687698E+01 0.48451296513E+01 0.48855709278E+01
 0.48889900591E+01 0.48890303127E+01 0.48856486297E+01 0.48451695719E+01 0.47315478973E+01
 0.41993399675E+01 0.40457126213E+01 0.38988320657E+01 0.37815965998E+01 0.37078611737E+01
 0.36829544290E+01 0.37078699154E+01 0.37816000100E+01 0.38988299056E+01 0.40457200287E+01
 0.41993594760E+01 0.43339030078E+01 0.44307262251E+01 0.44859162557E+01 0.45087470480E+01
 0.45137805905E+01 0.45087554433E+01 0.44859290545E+01 0.44307296654E+01 0.43338884094E+01
 0.40085932649E+01 0.39519506558E+01 0.38988532879E+01 0.38593568546E+01 0.38387811168E+01
 0.38387750839E+01 0.38593394826E+01 0.38988299056E+01 0.39519380957E+01 0.40086127239E+01
 0.40565345488E+01 0.40864631174E+01 0.40968698485E+01 0.40943782382E+01 0.40893718783E+01
 0.40893927880E+01 0.40944110201E+01 0.40968647796E+01 0.40864147299E+01 0.40564831265E+01
 0.40086058879E+01 0.40457751959E+01 0.40696456609E+01 0.40825922679E+01 0.40866557968E+01
 0.40825706444E+01 0.40695929370E+01 0.40457200287E+01 0.40086127239E+01 0.39575726002E+01
 0.38957648550E+01 0.38309580011E+01 0.37738302899E+01 0.37347576403E+01 0.37209289218E+01
 0.37348293779E+01 0.37738873621E+01 0.38309227083E+01 0.38956547704E+01 0.39574807410E+01
 0.41993601881E+01 0.43104323183E+01 0.43838786111E+01 0.44197621934E+01 0.44197675717E+01
 0.43838843310E+01 0.43104281276E+01 0.41993594760E+01 0.40565345488E+01 0.38957648550E+01
 0.37368413497E+01 0.36003051324E+01 0.35020942703E+01 0.34512655121E+01 0.34512736075E+01
 0.35021107056E+01 0.36003109542E+01 0.37368219858E+01 0.38957309603E+01 0.40565136798E+01
 0.45434009042E+01 0.46962551445E+01 0.47860209640E+01 0.48149415912E+01 0.47860612211E+01
 0.46963142549E+01 0.45434365257E+01 0.43339030078E+01 0.40864631174E+01 0.38309580011E+01
 0.36003051324E+01 0.34213119312E+01 0.33098466952E+01 0.32722402852E+01 0.33098184297E+01
 0.34212782905E+01 0.36003030133E+01 0.38310043087E+01 0.40865248505E+01 0.43339241594E+01
 0.49564266891E+01 0.50879821510E+01 0.51430825326E+01 0.51430597527E+01 0.50879379578E+01
 0.49564061277E+01 0.47315687698E+01 0.44307262251E+01 0.40968698485E+01 0.37738302899E+01
 0.35020942703E+01 0.33098466952E+01 0.32113284917E+01 0.32113175387E+01 0.33098354393E+01
 0.35021100985E+01 0.37738601829E+01 0.40968745016E+01 0.44307002449E+01 0.47315510466E+01
 0.52086964259E+01 0.52350808733E+01 0.52342959376E+01 0.52349649986E+01 0.52085805532E+01
 0.50929160697E+01 0.48451296513E+01 0.44859162557E+01 0.40943782382E+01 0.37347576403E+01
 0.34512655121E+01 0.32722402852E+01 0.32113175387E+01 0.32722427618E+01 0.34512949975E+01
 0.37348015917E+01 0.40943748964E+01 0.44858393190E+01 0.48450449971E+01 0.50929249278E+01
 0.50288616951E+01 0.49333057498E+01 0.49333258394E+01 0.50288983702E+01 0.51265040364E+01
 0.51022759904E+01 0.48855709278E+01 0.45087470480E+01 0.40893718783E+01 0.37209289218E+01
 0.34512736075E+01 0.33098184297E+01 0.33098354393E+01 0.34512949975E+01 0.37209141349E+01
 0.40893377790E+01 0.45087449827E+01 0.48856102193E+01 0.51023122229E+01 0.51264972586E+01
 0.43050142701E+01 0.41728065592E+01 0.43051735208E+01 0.46225868488E+01 0.49343551600E+01
 0.50506694424E+01 0.48889900591E+01 0.45137805905E+01 0.40893927880E+01 0.37348293779E+01
 0.35021107056E+01 0.34212782905E+01 0.35021100985E+01 0.37348015917E+01 0.40893377790E+01
 0.45137594955E+01 0.48890624009E+01 0.50507875317E+01 0.49343758112E+01 0.46224505796E+01
 0.31819559708E+01 0.31820013618E+01 0.35996290629E+01 0.42314017941E+01 0.47823494090E+01
 0.50211643221E+01 0.48890303127E+01 0.45087554433E+01 0.40944110201E+01 0.37738873621E+01
 0.36003109542E+01 0.36003030133E+01 0.37738601829E+01 0.40943748964E+01 0.45087449827E+01
 0.48890624009E+01 0.50211989579E+01 0.47823250337E+01 0.42313088336E+01 0.35995240592E+01
 0.20348991344E+01 0.23445688146E+01 0.31362330884E+01 0.40709347033E+01 0.47822636440E+01
 0.50507093955E+01 0.48856486297E+01 0.44859290545E+01 0.40968647796E+01 0.38309227083E+01
 0.37368219858E+01 0.38310043087E+01 0.40968745016E+01 0.44858393190E+01 0.48856102193E+01
 0.50507875317E+01 0.47823250337E+01 0.40708587065E+01 0.31360739308E+01 0.23444547324E+01
 0.13107832054E+01 0.20170913754E+01 0.31361055399E+01 0.42311316625E+01 0.49341981949E+01
 0.51023217581E+01 0.48451695719E+01 0.44307296654E+01 0.40864147299E+01 0.38956547704E+01
 0.38957309603E+01 0.40865248505E+01 0.44307002449E+01 0.48450449971E+01 0.51023122229E+01
 0.49343758112E+01 0.42313088336E+01 0.31360739308E+01 0.20168971198E+01 0.13106718022E+01
 0.13106632681E+01 0.23443496014E+01 0.35993223741E+01 0.46222787969E+01 0.51264448433E+01
 0.50929411360E+01 0.47315478973E+01 0.43338884094E+01 0.40564831265E+01 0.39574807410E+01
 0.40565136798E+01 0.43339241594E+01 0.47315510466E+01 0.50929249278E+01 0.51264972586E+01
 0.46224505796E+01 0.35995240592E+01 0.23444547324E+01 0.13106718022E+01 0.91074611608E+00
 0.38296093887E+01 0.45692244251E+01 0.50868500321E+01 0.52085397926E+01 0.49668556994E+01
 0.45558377451E+01 0.41806764216E+01 0.39271015234E+01 0.38378481603E+01 0.39271209327E+01
 0.41806750263E+01 0.45558185315E+01 0.49668820999E+01 0.52086248619E+01 0.50868738632E+01
 0.45690382999E+01 0.38292385440E+01 0.31818549371E+01 0.29254817663E+01 0.31821650019E+01
 0.45692244251E+01 0.50600998183E+01 0.52475318287E+01 0.50878624971E+01 0.47090859271E+01
 0.43121796566E+01 0.40058158029E+01 0.38403276013E+01 0.38404036691E+01 0.40059166795E+01