       N       E                     dE             d eps       ncg     rms          rms(c)
DAV:   1    -0.383690838613E+01   -0.38369E+01   -0.12597E+03   780   0.289E+02
DAV:   2    -0.542993995476E+01   -0.15930E+01   -0.15335E+01   978   0.271E+01
DAV:   3    -0.544262929611E+01   -0.12689E-01   -0.12675E-01   822   0.211E+00
DAV:   4    -0.544263489582E+01   -0.55997E-05   -0.55994E-05   942   0.432E-02
DAV:   5    -0.544263489944E+01   -0.36247E-08   -0.31135E-08   762   0.667E-04    0.913E-01
DAV:   6    -0.542210099666E+01    0.20534E-01   -0.45949E-03   696   0.406E-01    0.545E-01
DAV:   7    -0.541042713600E+01    0.11674E-01   -0.97646E-03   720   0.593E-01    0.259E-02
DAV:   8    -0.541040081056E+01    0.26325E-04   -0.24586E-05   678   0.456E-02
   1 F= -.54104008E+01 E0= -.54084975E+01  d E =-.380662E-02
