fcc Si                                  
   3.90000000000000     
     0.500000    0.500000    0.000000
     0.000000    0.500000    0.500000
     0.500000    0.000000    0.500000
   Si
     1
Direct
  0.000000  0.000000  0.000000
 
   20   20   20
 -2.6078     -1.7778     0.35285      2.9035      4.9374      5.9102      5.8518      5.2263      4.5801      4.1474    
  3.9966      4.1474      4.5801      5.2263      5.8518      5.9102      4.9374      2.9035     0.35285     -1.7778    
 -1.7778     -.30053      2.0154      4.2425      5.6396      5.9721      5.5215      4.8314      4.2852      3.9923    
  3.9924      4.2855      4.8314      5.5213      5.9721      5.6399      4.2428      2.0151     -.30137     -1.7783    
 0.35285      2.0154      3.9553      5.4098      5.9629      5.6888      5.0166      4.3932      3.9818      3.8393    
  3.9818      4.3932      5.0167      5.6889      5.9629      5.4097      3.9553      2.0155     0.35298     -.30137    
  2.9035      4.2425      5.4098      5.9421      5.7553      5.1268      4.4648      3.9695      3.7084      3.7083    
  3.9693      4.4648      5.1270      5.7554      5.9419      5.4096      4.2429      2.9043      2.0155      2.0151    
  4.9374      5.6396      5.9629      5.7553      5.1628      4.5001      3.9597      3.6142      3.4963      3.6142    
  3.9597      4.5001      5.1629      5.7554      5.9630      5.6397      4.9375      4.2429      3.9553      4.2428    
  5.9102      5.9721      5.6888      5.1268      4.5001      3.9561      3.5655      3.3642      3.3642      3.5656    
  3.9561      4.5001      5.1270      5.6890      5.9721      5.9100      5.6397      5.4096      5.4097      5.6399    
  5.8518      5.5215      5.0166      4.4648      3.9597      3.5655      3.3197      3.2368      3.3197      3.5655    
  3.9597      4.4648      5.0166      5.5215      5.8519      5.9721      5.9630      5.9419      5.9629      5.9721    
  5.2263      4.8314      4.3932      3.9695      3.6142      3.3642      3.2368      3.2368      3.3642      3.6142    
  3.9693      4.3930      4.8315      5.2266      5.5215      5.6890      5.7554      5.7554      5.6889      5.5213    
  4.5801      4.2852      3.9818      3.7084      3.4963      3.3642      3.3197      3.3642      3.4963      3.7084    
  3.9818      4.2852      4.5801      4.8315      5.0166      5.1270      5.1629      5.1270      5.0167      4.8314    
  4.1474      3.9923      3.8393      3.7083      3.6142      3.5656      3.5655      3.6142      3.7084      3.8396    
  3.9924      4.1473      4.2852      4.3930      4.4648      4.5001      4.5001      4.4648      4.3932      4.2855    
  3.9966      3.9924      3.9818      3.9693      3.9597      3.9561      3.9597      3.9693      3.9818      3.9924    
  3.9966      3.9924      3.9818      3.9693      3.9597      3.9561      3.9597      3.9693      3.9818      3.9924    
  4.1474      4.2855      4.3932      4.4648      4.5001      4.5001      4.4648      4.3930      4.2852      4.1473    
  3.9924      3.8396      3.7084      3.6142      3.5655      3.5656      3.6142      3.7083      3.8393      3.9923    
  4.5801      4.8314      5.0167      5.1270      5.1629      5.1270      5.0166      4.8315      4.5801      4.2852    
  3.9818      3.7084      3.4963      3.3642      3.3197      3.3642      3.4963      3.7084      3.9818      4.2852    
  5.2263      5.5213      5.6889      5.7554      5.7554      5.6890      5.5215      5.2266      4.8315      4.3930    
  3.9693      3.6142      3.3642      3.2368      3.2368      3.3642      3.6142      3.9695      4.3932      4.8314    
  5.8518      5.9721      5.9629      5.9419      5.9630      5.9721      5.8519      5.5215      5.0166      4.4648    
  3.9597      3.5655      3.3197      3.2368      3.3197      3.5655      3.9597      4.4648      5.0166      5.5215    
  5.9102      5.6399      5.4097      5.4096      5.6397      5.9100      5.9721      5.6890      5.1270      4.5001    
  3.9561      3.5656      3.3642      3.3642      3.5655      3.9561      4.5001      5.1268      5.6888      5.9721    
  4.9374      4.2428      3.9553      4.2429      4.9375      5.6397      5.9630      5.7554      5.1629      4.5001    
  3.9597      3.6142      3.4963      3.6142      3.9597      4.5001      5.1628      5.7553      5.9629      5.6396    
  2.9035      2.0151      2.0155      2.9043      4.2429      5.4096      5.9419      5.7554      5.1270      4.4648    
  3.9693      3.7083      3.7084      3.9695      4.4648      5.1268      5.7553      5.9421      5.4098      4.2425    
 0.35285     -.30137     0.35298      2.0155      3.9553      5.4097      5.9629      5.6889      5.0167      4.3932    
  3.9818      3.8393      3.9818      4.3932      5.0166      5.6888      5.9629      5.4098      3.9553      2.0154    
 -1.7778     -1.7783     -.30137      2.0151      4.2428      5.6399      5.9721      5.5213      4.8314      4.2855    
  3.9924      3.9923      4.2852      4.8314      5.5215      5.9721      5.6396      4.2425      2.0154     -.30053    
 -1.7780     -.30050      2.0156      4.2427      5.6396      5.9721      5.5215      4.8315      4.2852      3.9922    
  3.9924      4.2855      4.8315      5.5212      5.9721      5.6400      4.2428      2.0149     -.30164     -1.7786    
 -.30050      1.5139      3.6494      5.2869      5.9701      5.7606      5.0998      4.4679      4.0489      3.9035    
  4.0489      4.4678      5.0998      5.7607      5.9705      5.2872      3.6490      1.5127     -.30166     -1.0126    
  2.0156      3.6494      5.1311      5.9131      5.8689      5.2810      4.6043      4.0913      3.8194      3.8193    
  4.0911      4.6042      5.2811      5.8692      5.9132      5.1309      3.6490      2.0152     0.94737     0.94754    
  4.2427      5.2869      5.9131      5.8966      5.3686      4.6873      4.1183      3.7514      3.6257      3.7515    
  4.1183      4.6871      5.3685      5.8966      5.9131      5.2870      4.2428      3.2762      2.8846      3.2760    
  5.6396      5.9701      5.8689      5.3686      4.7151      4.1316      3.7080      3.4885      3.4886      3.7082    
  4.1315      4.7149      5.3685      5.8690      5.9703      5.6397      5.0994      4.6998      4.6999      5.0994    
  5.9721      5.7606      5.2810      4.6873      4.1316      3.6933      3.4184      3.3253      3.4184      3.6933    
  4.1316      4.6873      5.2810      5.7607      5.9720      5.9194      5.7578      5.6762      5.7580      5.9196    
  5.5215      5.0998      4.6043      4.1183      3.7080      3.4184      3.2705      3.2704      3.4183      3.7080    
  4.1183      4.6042      5.0997      5.5215      5.7818      5.8820      5.8970      5.8969      5.8818      5.7817    
  4.8315      4.4679      4.0913      3.7514      3.4885      3.3253      3.2704      3.3254      3.4885      3.7514    
  4.0911      4.4676      4.8314      5.1375      5.3526      5.4674      5.5014      5.4672      5.3523      5.1373    
  4.2852      4.0489      3.8194      3.6257      3.4886      3.4184      3.4183      3.4885      3.6257      3.8194    
  4.0489      4.2852      4.4986      4.6667      4.7790      4.8340      4.8340      4.7789      4.6667      4.4986    
  3.9922      3.9035      3.8193      3.7515      3.7082      3.6933      3.7080      3.7514      3.8194      3.9037    
  3.9924      4.0732      4.1374      4.1815      4.2064      4.2143      4.2064      4.1817      4.1376      4.0733    
  3.9924      4.0489      4.0911      4.1183      4.1315      4.1316      4.1183      4.0911      4.0489      3.9924    
  3.9254      3.8555      3.7924      3.7453      3.7203      3.7204      3.7453      3.7924      3.8555      3.9254    
  4.2855      4.4678      4.6042      4.6871      4.7149      4.6873      4.6042      4.4676      4.2852      4.0732    
  3.8555      3.6585      3.5047      3.4083      3.3757      3.4084      3.5046      3.6583      3.8553      4.0733    
  4.8315      5.0998      5.2811      5.3685      5.3685      5.2810      5.0997      4.8314      4.4986      4.1374    
  3.7924      3.5047      3.3024      3.1992      3.1992      3.3024      3.5047      3.7924      4.1374      4.4986    
  5.5212      5.7607      5.8692      5.8966      5.8690      5.7607      5.5215      5.1375      4.6667      4.1815    
  3.7453      3.4083      3.1992      3.1288      3.1992      3.4083      3.7454      4.1817      4.6667      5.1372    
  5.9721      5.9705      5.9132      5.9131      5.9703      5.9720      5.7818      5.3526      4.7790      4.2064    
  3.7203      3.3757      3.1992      3.1992      3.3756      3.7203      4.2065      4.7790      5.3525      5.7817    
  5.6400      5.2872      5.1309      5.2870      5.6397      5.9194      5.8820      5.4674      4.8340      4.2143    
  3.7204      3.4084      3.3024      3.4083      3.7203      4.2142      4.8339      5.4673      5.8820      5.9196    
  4.2428      3.6490      3.6490      4.2428      5.0994      5.7578      5.8970      5.5014      4.8340      4.2064    
  3.7453      3.5046      3.5047      3.7454      4.2065      4.8339      5.5013      5.8969      5.7579      5.0994    
  2.0149      1.5127      2.0152      3.2762      4.6998      5.6762      5.8969      5.4672      4.7789      4.1817    
  3.7924      3.6583      3.7924      4.1817      4.7790      5.4673      5.8969      5.6762      4.6996      3.2758    
 -.30164     -.30166     0.94737      2.8846      4.6999      5.7580      5.8818      5.3523      4.6667      4.1376    
  3.8555      3.8553      4.1374      4.6667      5.3525      5.8820      5.7579      4.6996      2.8844     0.94734    
 -1.7786     -1.0126     0.94754      3.2760      5.0994      5.9196      5.7817      5.1373      4.4986      4.0733    
  3.9254      4.0733      4.4986      5.1372      5.7817      5.9196      5.0994      3.2758     0.94734     -1.0127    
 0.35257      2.0152      3.9553      5.4099      5.9630      5.6888      5.0167      4.3933      3.9819      3.8393    
  3.9818      4.3933      5.0167      5.6888      5.9630      5.4098      3.9553      2.0154     0.35279     -.30162    
  2.0152      3.6492      5.1311      5.9133      5.8689      5.2809      4.6043      4.0913      3.8194      3.8193    
  4.0911      4.6042      5.2811      5.8691      5.9132      5.1310      3.6491      2.0152     0.94725     0.94724    
  3.9553      5.1311      5.8753      5.9356      5.4374      4.7523      4.1740      3.7998      3.6713      3.7997    
  4.1739      4.7523      5.4374      5.9356      5.8753      5.1311      3.9553      2.8843      2.4530      2.8843    
  5.4099      5.9133      5.9356      5.4878      4.8282      4.2252      3.7846      3.5554      3.5554      3.7847    
  4.2252      4.8281      5.4877      5.9355      5.9133      5.4100      4.6998      4.1942      4.1941      4.6995    
  5.9630      5.8689      5.4374      4.8282      4.2425      3.7767      3.4830      3.3834      3.4830      3.7767    
  4.2425      4.8282      5.4374      5.8689      5.9630      5.7579      5.4672      5.3349      5.4672      5.7579    
  5.6888      5.2809      4.7523      4.2252      3.7767      3.4586      3.2958      3.2958      3.4585      3.7766    
  4.2252      4.7524      5.2811      5.6888      5.8818      5.8950      5.8501      5.8503      5.8954      5.8820    
  5.0167      4.6043      4.1740      3.7846      3.4830      3.2958      3.2328      3.2958      3.4830      3.7846    
  4.1740      4.6042      5.0166      5.3525      5.5621      5.6558      5.6791      5.6559      5.5622      5.3525    
  4.3933      4.0913      3.7998      3.5554      3.3834      3.2958      3.2958      3.3835      3.5554      3.7997    
  4.0911      4.3931      4.6667      4.8823      5.0253      5.0938      5.0937      5.0252      4.8821      4.6667    
  3.9819      3.8194      3.6713      3.5554      3.4830      3.4585      3.4830      3.5554      3.6713      3.8194    
  3.9818      4.1374      4.2680      4.3628      4.4187      4.4371      4.4187      4.3628      4.2680      4.1374    
  3.8393      3.8193      3.7997      3.7847      3.7767      3.7766      3.7846      3.7997      3.8194      3.8395    
  3.8555      3.8645      3.8671      3.8659      3.8643      3.8643      3.8660      3.8673      3.8646      3.8553    
  3.9818      4.0911      4.1739      4.2252      4.2425      4.2252      4.1740      4.0911      3.9818      3.8555    
  3.7252      3.6061      3.5118      3.4521      3.4317      3.4521      3.5118      3.6061      3.7252      3.8555    
  4.3933      4.6042      4.7523      4.8281      4.8282      4.7524      4.6042      4.3931      4.1374      3.8645    
  3.6061      3.3909      3.2393      3.1618      3.1618      3.2393      3.3908      3.6060      3.8646      4.1376    
  5.0167      5.2811      5.4374      5.4877      5.4374      5.2811      5.0166      4.6667      4.2680      3.8671    
  3.5118      3.2393      3.0706      3.0139      3.0707      3.2393      3.5119      3.8671      4.2680      4.6667    
  5.6888      5.8691      5.9356      5.9355      5.8689      5.6888      5.3525      4.8823      4.3628      3.8659    
  3.4521      3.1618      3.0139      3.0139      3.1618      3.4522      3.8660      4.3628      4.8822      5.3523    
  5.9630      5.9132      5.8753      5.9133      5.9630      5.8818      5.5621      5.0253      4.4187      3.8643    
  3.4317      3.1618      3.0707      3.1618      3.4317      3.8643      4.4187      5.0254      5.5622      5.8818    
  5.4098      5.1310      5.1311      5.4100      5.7579      5.8950      5.6558      5.0938      4.4371      3.8643    
  3.4521      3.2393      3.2393      3.4522      3.8643      4.4369      5.0937      5.6560      5.8953      5.7580    
  3.9553      3.6491      3.9553      4.6998      5.4672      5.8501      5.6791      5.0937      4.4187      3.8660    
  3.5118      3.3908      3.5119      3.8660      4.4187      5.0937      5.6791      5.8501      5.4672      4.6998    
  2.0154      2.0152      2.8843      4.1942      5.3349      5.8503      5.6559      5.0252      4.3628      3.8673    
  3.6061      3.6060      3.8671      4.3628      5.0254      5.6560      5.8501      5.3346      4.1942      2.8846    
 0.35279     0.94725      2.4530      4.1941      5.4672      5.8954      5.5622      4.8821      4.2680      3.8646    
  3.7252      3.8646      4.2680      4.8822      5.5622      5.8953      5.4672      4.1942      2.4533     0.94744    
 -.30162     0.94724      2.8843      4.6995      5.7579      5.8820      5.3525      4.6667      4.1374      3.8553    
  3.8555      4.1376      4.6667      5.3523      5.8818      5.7580      4.6998      2.8846     0.94744     -.30156    
  2.9035      4.2424      5.4097      5.9421      5.7554      5.1269      4.4649      3.9695      3.7084      3.7083    
  3.9693      4.4648      5.1270      5.7554      5.9419      5.4096      4.2429      2.9042      2.0155      2.0152    
  4.2424      5.2867      5.9131      5.8966      5.3686      4.6872      4.1183      3.7515      3.6258      3.7515    
  4.1183      4.6872      5.3685      5.8965      5.9131      5.2870      4.2429      3.2763      2.8846      3.2759    
  5.4097      5.9131      5.9356      5.4879      4.8282      4.2251      3.7846      3.5554      3.5555      3.7847    
  4.2252      4.8281      5.4877      5.9355      5.9132      5.4101      4.6999      4.1944      4.1942      4.6994    
  5.9421      5.8966      5.4879      4.8763      4.2806      3.8055      3.5055      3.4037      3.5055      3.8056    
  4.2808      4.8764      5.4877      5.8963      5.9421      5.6765      5.3351      5.1829      5.3346      5.6760    
  5.7554      5.3686      4.8282      4.2806      3.8127      3.4800      3.3095      3.3094      3.4800      3.8128    
  4.2808      4.8283      5.3684      5.7552      5.8969      5.8503      5.7652      5.7650      5.8500      5.8969    
  5.1269      4.6872      4.2251      3.8055      3.4800      3.2778      3.2096      3.2777      3.4800      3.8056    
  4.2252      4.6873      5.1270      5.4673      5.6558      5.7224      5.7338      5.7226      5.6560      5.4673    
  4.4649      4.1183      3.7846      3.5055      3.3095      3.2096      3.2096      3.3095      3.5055      3.7846    
  4.1184      4.4649      4.7790      5.0253      5.1826      5.2536      5.2536      5.1827      5.0254      4.7790    
  3.9695      3.7515      3.5554      3.4037      3.3094      3.2777      3.3095      3.4038      3.5554      3.7514    
  3.9694      4.1816      4.3628      4.4965      4.5764      4.6027      4.5763      4.4964      4.3628      4.1817    
  3.7084      3.6258      3.5555      3.5055      3.4800      3.4800      3.5055      3.5554      3.6257      3.7083    
  3.7924      3.8671      3.9251      3.9632      3.9818      3.9818      3.9632      3.9250      3.8671      3.7924    
  3.7083      3.7515      3.7847      3.8056      3.8128      3.8056      3.7846      3.7514      3.7083      3.6584    
  3.6060      3.5568      3.5166      3.4905      3.4814      3.4905      3.5167      3.5568      3.6059      3.6583    
  3.9693      4.1183      4.2252      4.2808      4.2808      4.2252      4.1184      3.9694      3.7924      3.6060    
  3.4306      3.2845      3.1812      3.1281      3.1281      3.1812      3.2845      3.4306      3.6061      3.7924    
  4.4648      4.6872      4.8281      4.8764      4.8283      4.6873      4.4649      4.1816      3.8671      3.5568    
  3.2845      3.0763      2.9474      2.9040      2.9474      3.0762      3.2844      3.5569      3.8673      4.1817    
  5.1270      5.3685      5.4877      5.4877      5.3684      5.1270      4.7790      4.3628      3.9251      3.5166    
  3.1812      2.9474      2.8287      2.8287      2.9474      3.1812      3.5166      3.9250      4.3627      4.7789    
  5.7554      5.8965      5.9355      5.8963      5.7552      5.4673      5.0253      4.4965      3.9632      3.4905    
  3.1281      2.9040      2.8287      2.9040      3.1281      3.4905      3.9632      4.4963      5.0251      5.4672    
  5.9419      5.9131      5.9132      5.9421      5.8969      5.6558      5.1826      4.5764      3.9818      3.4814    
  3.1281      2.9474      2.9474      3.1281      3.4814      3.9818      4.5764      5.1827      5.6558      5.8969    
  5.4096      5.2870      5.4101      5.6765      5.8503      5.7224      5.2536      4.6027      3.9818      3.4905    
  3.1812      3.0762      3.1812      3.4905      3.9818      4.6027      5.2538      5.7227      5.8503      5.6762    
  4.2429      4.2429      4.6999      5.3351      5.7652      5.7338      5.2536      4.5763      3.9632      3.5167    
  3.2845      3.2844      3.5166      3.9632      4.5764      5.2538      5.7338      5.7651      5.3350      4.6997    
  2.9042      3.2763      4.1944      5.1829      5.7650      5.7226      5.1827      4.4964      3.9250      3.5568    
  3.4306      3.5569      3.9250      4.4963      5.1827      5.7227      5.7651      5.1828      4.1943      3.2762    
  2.0155      2.8846      4.1942      5.3346      5.8500      5.6560      5.0254      4.3628      3.8671      3.6059    
  3.6061      3.8673      4.3627      5.0251      5.6558      5.8503      5.3350      4.1943      2.8844      2.0154    
  2.0152      3.2759      4.6994      5.6760      5.8969      5.4673      4.7790      4.1817      3.7924      3.6583    
  3.7924      4.1817      4.7789      5.4672      5.8969      5.6762      4.6997      3.2762      2.0154      1.5130    
  4.9377      5.6398      5.9629      5.7553      5.1628      4.5001      3.9597      3.6142      3.4963      3.6142    
  3.9597      4.5001      5.1628      5.7554      5.9630      5.6397      4.9374      4.2428      3.9553      4.2430    
  5.6398      5.9702      5.8688      5.3685      4.7151      4.1316      3.7080      3.4885      3.4886      3.7082    
  4.1315      4.7149      5.3685      5.8690      5.9704      5.6397      5.0993      4.6997      4.6999      5.0996    
  5.9629      5.8688      5.4373      4.8282      4.2425      3.7767      3.4830      3.3834      3.4830      3.7767    
  4.2424      4.8282      5.4374      5.8689      5.9629      5.7579      5.4672      5.3351      5.4674      5.7580    
  5.7553      5.3685      4.8282      4.2806      3.8126      3.4800      3.3094      3.3094      3.4800      3.8127    
  4.2808      4.8283      5.3684      5.7551      5.8969      5.8502      5.7652      5.7652      5.8503      5.8970    
  5.1628      4.7151      4.2425      3.8126      3.4790      3.2716      3.2018      3.2717      3.4790      3.8127    
  4.2425      4.7151      5.1628      5.5012      5.6791      5.7339      5.7400      5.7339      5.6791      5.5012    
  4.5001      4.1316      3.7767      3.4800      3.2716      3.1655      3.1656      3.2716      3.4800      3.7766    
  4.1316      4.5002      4.8340      5.0936      5.2537      5.3232      5.3233      5.2538      5.0936      4.8338    
  3.9597      3.7080      3.4830      3.3094      3.2018      3.1656      3.2018      3.3094      3.4830      3.7081    
  3.9597      4.2064      4.4187      4.5765      4.6713      4.7026      4.6713      4.5764      4.4187      4.2064    
  3.6142      3.4885      3.3834      3.3094      3.2717      3.2716      3.3094      3.3835      3.4886      3.6142    
  3.7453      3.8660      3.9633      4.0299      4.0632      4.0631      4.0297      3.9633      3.8661      3.7455    
  3.4963      3.4886      3.4830      3.4800      3.4790      3.4800      3.4830      3.4886      3.4963      3.5046    
  3.5118      3.5166      3.5189      3.5196      3.5197      3.5196      3.5189      3.5166      3.5119      3.5047    
  3.6142      3.7082      3.7767      3.8127      3.8127      3.7766      3.7081      3.6142      3.5046      3.3908    
  3.2845      3.1960      3.1332      3.1008      3.1008      3.1333      3.1960      3.2844      3.3907      3.5045    
  3.9597      4.1315      4.2424      4.2808      4.2425      4.1316      3.9597      3.7453      3.5118      3.2845    
  3.0863      2.9349      2.8409      2.8092      2.8409      2.9349      3.0864      3.2845      3.5118      3.7453    
  4.5001      4.7149      4.8282      4.8283      4.7151      4.5002      4.2064      3.8660      3.5166      3.1960    
  2.9349      2.7534      2.6611      2.6611      2.7534      2.9349      3.1960      3.5167      3.8661      4.2065    
  5.1628      5.3685      5.4374      5.3684      5.1628      4.8340      4.4187      3.9633      3.5189      3.1332    
  2.8409      2.6611      2.6008      2.6612      2.8409      3.1332      3.5189      3.9632      4.4187      4.8340    
  5.7554      5.8690      5.8689      5.7551      5.5012      5.0936      4.5765      4.0299      3.5196      3.1008    
  2.8092      2.6611      2.6612      2.8092      3.1008      3.5196      4.0297      4.5763      5.0936      5.5014    
  5.9630      5.9704      5.9629      5.8969      5.6791      5.2537      4.6713      4.0632      3.5197      3.1008    
  2.8409      2.7534      2.8409      3.1008      3.5197      4.0632      4.6713      5.2537      5.6791      5.8969    
  5.6397      5.6397      5.7579      5.8502      5.7339      5.3232      4.7026      4.0631      3.5196      3.1333    
  2.9349      2.9349      3.1332      3.5196      4.0632      4.7027      5.3232      5.7338      5.8502      5.7578    
  4.9374      5.0993      5.4672      5.7652      5.7400      5.3233      4.6713      4.0297      3.5189      3.1960    
  3.0864      3.1960      3.5189      4.0297      4.6713      5.3232      5.7399      5.7652      5.4672      5.0994    
  4.2428      4.6997      5.3351      5.7652      5.7339      5.2538      4.5764      3.9633      3.5166      3.2844    
  3.2845      3.5167      3.9632      4.5763      5.2537      5.7338      5.7652      5.3350      4.6998      4.2428    
  3.9553      4.6999      5.4674      5.8503      5.6791      5.0936      4.4187      3.8661      3.5119      3.3907    
  3.5118      3.8661      4.4187      5.0936      5.6791      5.8502      5.4672      4.6998      3.9552      3.6490    
  4.2430      5.0996      5.7580      5.8970      5.5012      4.8338      4.2064      3.7455      3.5047      3.5045    
  3.7453      4.2065      4.8340      5.5014      5.8969      5.7578      5.0994      4.2428      3.6490      3.6491    
  5.9102      5.9722      5.6890      5.1270      4.5001      3.9560      3.5655      3.3642      3.3643      3.5655    
  3.9561      4.5002      5.1270      5.6889      5.9721      5.9100      5.6397      5.4096      5.4096      5.6399    
  5.9722      5.7608      5.2810      4.6872      4.1316      3.6933      3.4184      3.3253      3.4183      3.6933    
  4.1316      4.6873      5.2810      5.7607      5.9720      5.9194      5.7577      5.6760      5.7578      5.9196    
  5.6890      5.2810      4.7523      4.2251      3.7767      3.4587      3.2958      3.2958      3.4585      3.7766    
  4.2252      4.7524      5.2810      5.6888      5.8818      5.8950      5.8501      5.8502      5.8953      5.8821    
  5.1270      4.6872      4.2251      3.8055      3.4800      3.2777      3.2096      3.2777      3.4800      3.8056    
  4.2252      4.6873      5.1270      5.4672      5.6557      5.7224      5.7337      5.7227      5.6561      5.4674    
  4.5001      4.1316      3.7767      3.4800      3.2716      3.1655      3.1655      3.2716      3.4800      3.7766    
  4.1316      4.5002      4.8340      5.0936      5.2536      5.3231      5.3232      5.2539      5.0938      4.8339    
  3.9560      3.6933      3.4587      3.2777      3.1655      3.1277      3.1655      3.2777      3.4585      3.6932    
  3.9561      4.2144      4.4370      4.6027      4.7026      4.7357      4.7028      4.6028      4.4369      4.2142    
  3.5655      3.4184      3.2958      3.2096      3.1655      3.1655      3.2096      3.2958      3.4183      3.5655    
  3.7204      3.8643      3.9818      4.0632      4.1043      4.1043      4.0632      3.9818      3.8643      3.7203    
  3.3642      3.3253      3.2958      3.2777      3.2716      3.2777      3.2958      3.3253      3.3642      3.4083    
  3.4521      3.4905      3.5196      3.5375      3.5435      3.5374      3.5196      3.4905      3.4522      3.4084    
  3.3643      3.4183      3.4585      3.4800      3.4800      3.4585      3.4183      3.3642      3.3024      3.2393    
  3.1812      3.1332      3.0993      3.0817      3.0817      3.0992      3.1332      3.1812      3.2393      3.3024    
  3.5655      3.6933      3.7766      3.8056      3.7766      3.6932      3.5655      3.4083      3.2393      3.0763    
  2.9349      2.8269      2.7596      2.7368      2.7596      2.8269      2.9349      3.0763      3.2393      3.4083    
  3.9561      4.1316      4.2252      4.2252      4.1316      3.9561      3.7204      3.4521      3.1812      2.9349    
  2.7351      2.5958      2.5248      2.5248      2.5958      2.7351      2.9350      3.1812      3.4521      3.7204    
  4.5002      4.6873      4.7524      4.6873      4.5002      4.2144      3.8643      3.4905      3.1332      2.8269    
  2.5958      2.4537      2.4058      2.4536      2.5958      2.8269      3.1333      3.4905      3.8643      4.2143    
  5.1270      5.2810      5.2810      5.1270      4.8340      4.4370      3.9818      3.5196      3.0993      2.7596    
  2.5248      2.4058      2.4059      2.5248      2.7595      3.0992      3.5196      3.9819      4.4371      4.8341    
  5.6889      5.7607      5.6888      5.4672      5.0936      4.6027      4.0632      3.5375      3.0817      2.7368    
  2.5248      2.4536      2.5248      2.7368      3.0817      3.5374      4.0631      4.6028      5.0938      5.4674    
  5.9721      5.9720      5.8818      5.6557      5.2536      4.7026      4.1043      3.5435      3.0817      2.7596    
  2.5958      2.5958      2.7595      3.0817      3.5435      4.1043      4.7026      5.2536      5.6558      5.8820    
  5.9100      5.9194      5.8950      5.7224      5.3231      4.7357      4.1043      3.5374      3.0992      2.8269    
  2.7351      2.8269      3.0992      3.5374      4.1043      4.7357      5.3232      5.7224      5.8950      5.9194    
  5.6397      5.7577      5.8501      5.7337      5.3232      4.7028      4.0632      3.5196      3.1332      2.9349    
  2.9350      3.1333      3.5196      4.0631      4.7026      5.3232      5.7338      5.8502      5.7579      5.6397    
  5.4096      5.6760      5.8502      5.7227      5.2539      4.6028      3.9818      3.4905      3.1812      3.0763    
  3.1812      3.4905      3.9819      4.6028      5.2536      5.7224      5.8502      5.6765      5.4100      5.2870    
  5.4096      5.7578      5.8953      5.6561      5.0938      4.4369      3.8643      3.4522      3.2393      3.2393    
  3.4521      3.8643      4.4371      5.0938      5.6558      5.8950      5.7579      5.4100      5.1311      5.1308    
  5.6399      5.9196      5.8821      5.4674      4.8339      4.2142      3.7203      3.4084      3.3024      3.4083    
  3.7204      4.2143      4.8341      5.4674      5.8820      5.9194      5.6397      5.2870      5.1308      5.2871    
  5.8516      5.5213      5.0167      4.4650      3.9597      3.5655      3.3197      3.2368      3.3197      3.5655    
  3.9597      4.4649      5.0167      5.5215      5.8518      5.9721      5.9630      5.9420      5.9630      5.9719    
  5.5213      5.0998      4.6043      4.1184      3.7081      3.4183      3.2705      3.2705      3.4184      3.7080    
  4.1183      4.6043      5.0998      5.5215      5.7818      5.8820      5.8970      5.8968      5.8817      5.7815    
  5.0167      4.6043      4.1740      3.7846      3.4830      3.2958      3.2329      3.2958      3.4830      3.7846    