   1   1   1   0
  0.1482975E+02  0.2757716E-09  0.2757716E-09  0.2757716E-09  0.5000000E-15
  1.000000000000000E-004
  CAR 
 fcc Si                                  
     29.20156940     -6.36456989  301      9.85284164      1.00000000
     -6.365  0.0000E+00  0.0000E+00
     -6.246  0.0000E+00  0.0000E+00
     -6.127  0.0000E+00  0.0000E+00
     -6.009  0.0000E+00  0.0000E+00
     -5.890  0.0000E+00  0.0000E+00
     -5.772  0.0000E+00  0.0000E+00
     -5.653  0.0000E+00  0.0000E+00
     -5.535  0.0000E+00  0.0000E+00
     -5.416  0.0000E+00  0.0000E+00
     -5.298  0.0000E+00  0.0000E+00
     -5.179  0.0000E+00  0.0000E+00
     -5.060  0.0000E+00  0.0000E+00
     -4.942  0.0000E+00  0.0000E+00
     -4.823  0.0000E+00  0.0000E+00
     -4.705  0.0000E+00  0.0000E+00
     -4.586  0.0000E+00  0.0000E+00
     -4.468  0.0000E+00  0.0000E+00
     -4.349  0.1681E-02  0.8637E-05
     -4.231  0.3463E-01  0.2651E-02
     -4.112  0.5026E-01  0.7947E-02
     -3.993  0.6388E-01  0.1470E-01
     -3.875  0.7316E-01  0.2289E-01
     -3.756  0.8178E-01  0.3205E-01
     -3.638  0.9136E-01  0.4234E-01
     -3.519  0.9715E-01  0.5348E-01
     -3.401  0.1041E+00  0.6540E-01
     -3.282  0.1119E+00  0.7820E-01
     -3.164  0.1170E+00  0.9177E-01
     -3.045  0.1224E+00  0.1060E+00
     -2.927  0.1283E+00  0.1208E+00
     -2.808  0.1346E+00  0.1364E+00
     -2.689  0.1391E+00  0.1526E+00
     -2.571  0.1436E+00  0.1694E+00
     -2.452  0.1486E+00  0.1867E+00
     -2.334  0.1538E+00  0.2046E+00
     -2.215  0.1587E+00  0.2232E+00
     -2.097  0.1625E+00  0.2422E+00
     -1.978  0.1667E+00  0.2617E+00
     -1.860  0.1709E+00  0.2817E+00
     -1.741  0.1755E+00  0.3023E+00
     -1.622  0.1801E+00  0.3233E+00
     -1.504  0.1837E+00  0.3449E+00
     -1.385  0.1873E+00  0.3669E+00
     -1.267  0.1911E+00  0.3893E+00
     -1.148  0.1950E+00  0.4122E+00
     -1.030  0.1990E+00  0.4356E+00
     -0.911  0.2031E+00  0.4594E+00
     -0.793  0.2066E+00  0.4837E+00
     -0.674  0.2098E+00  0.5084E+00
     -0.555  0.2133E+00  0.5335E+00
     -0.437  0.2168E+00  0.5589E+00
     -0.318  0.2204E+00  0.5849E+00
     -0.200  0.2241E+00  0.6112E+00
     -0.081  0.2279E+00  0.6380E+00
      0.037  0.2310E+00  0.6652E+00
      0.156  0.2341E+00  0.6928E+00
      0.274  0.2373E+00  0.7207E+00
      0.393  0.2406E+00  0.7490E+00
      0.512  0.2440E+00  0.7778E+00
      0.630  0.2475E+00  0.8069E+00
      0.749  0.2511E+00  0.8365E+00
      0.867  0.2544E+00  0.8664E+00
      0.986  0.2575E+00  0.8968E+00
      1.104  0.2607E+00  0.9275E+00
      1.223  0.2641E+00  0.9586E+00
      1.341  0.2676E+00  0.9901E+00
      1.460  0.2713E+00  0.1022E+01
      1.579  0.2754E+00  0.1054E+01
      1.697  0.2801E+00  0.1087E+01
      1.816  0.2856E+00  0.1121E+01
      1.934  0.2928E+00  0.1155E+01
      2.053  0.3042E+00  0.1191E+01
      2.171  0.3291E+00  0.1228E+01
      2.290  0.3111E+00  0.1267E+01
      2.408  0.3030E+00  0.1303E+01
      2.527  0.3066E+00  0.1340E+01
      2.646  0.2971E+00  0.1377E+01
      2.764  0.2849E+00  0.1411E+01
      2.883  0.2754E+00  0.1444E+01
      3.001  0.2718E+00  0.1476E+01
      3.120  0.2771E+00  0.1510E+01
      3.238  0.2681E+00  0.1542E+01
      3.357  0.2859E+00  0.1574E+01
      3.475  0.2932E+00  0.1609E+01
      3.594  0.3099E+00  0.1645E+01
      3.713  0.2981E+00  0.1681E+01
      3.831  0.3104E+00  0.1717E+01
      3.950  0.3464E+00  0.1756E+01
      4.068  0.3337E+00  0.1795E+01
      4.187  0.3239E+00  0.1835E+01
      4.305  0.3313E+00  0.1873E+01
      4.424  0.3437E+00  0.1913E+01
      4.542  0.3577E+00  0.1955E+01
      4.661  0.3598E+00  0.1998E+01
      4.779  0.3392E+00  0.2039E+01
      4.898  0.3415E+00  0.2079E+01
      5.017  0.3459E+00  0.2120E+01
      5.135  0.3339E+00  0.2161E+01
      5.254  0.3215E+00  0.2200E+01
      5.372  0.3120E+00  0.2237E+01
      5.491  0.3209E+00  0.2275E+01
      5.609  0.3213E+00  0.2313E+01
      5.728  0.3257E+00  0.2352E+01
      5.846  0.3456E+00  0.2391E+01
      5.965  0.3858E+00  0.2434E+01
      6.084  0.4206E+00  0.2483E+01
      6.202  0.4218E+00  0.2533E+01
      6.321  0.4001E+00  0.2581E+01
      6.439  0.4078E+00  0.2630E+01
      6.558  0.4045E+00  0.2678E+01
      6.676  0.3657E+00  0.2724E+01
      6.795  0.3587E+00  0.2767E+01
      6.913  0.3513E+00  0.2809E+01
      7.032  0.3415E+00  0.2850E+01
      7.151  0.3439E+00  0.2892E+01
      7.269  0.3417E+00  0.2932E+01
      7.388  0.4337E+00  0.2976E+01
      7.506  0.3900E+00  0.3023E+01
      7.625  0.3970E+00  0.3070E+01
      7.743  0.4031E+00  0.3117E+01
      7.862  0.4105E+00  0.3165E+01
      7.980  0.4172E+00  0.3214E+01
      8.099  0.4110E+00  0.3263E+01
      8.218  0.4171E+00  0.3312E+01
      8.336  0.4371E+00  0.3363E+01
      8.455  0.3980E+00  0.3411E+01
      8.573  0.3952E+00  0.3458E+01
      8.692  0.4035E+00  0.3506E+01
      8.810  0.4058E+00  0.3554E+01
      8.929  0.4094E+00  0.3602E+01
      9.047  0.4207E+00  0.3651E+01
      9.166  0.4198E+00  0.3702E+01
      9.285  0.4311E+00  0.3752E+01
      9.403  0.4314E+00  0.3803E+01
      9.522  0.4349E+00  0.3854E+01
      9.640  0.4391E+00  0.3906E+01
      9.759  0.4402E+00  0.3959E+01
      9.877  0.4439E+00  0.4011E+01
      9.996  0.4436E+00  0.4064E+01
     10.114  0.4454E+00  0.4117E+01
     10.233  0.4446E+00  0.4170E+01
     10.352  0.4419E+00  0.4222E+01
     10.470  0.4476E+00  0.4275E+01
     10.589  0.4557E+00  0.4329E+01
     10.707  0.4578E+00  0.4383E+01
     10.826  0.4635E+00  0.4437E+01
     10.944  0.4726E+00  0.4493E+01
     11.063  0.4725E+00  0.4549E+01
     11.181  0.4840E+00  0.4605E+01
     11.300  0.4815E+00  0.4663E+01
     11.418  0.4768E+00  0.4720E+01
     11.537  0.4837E+00  0.4777E+01
     11.656  0.4861E+00  0.4834E+01
     11.774  0.4936E+00  0.4892E+01
     11.893  0.4962E+00  0.4951E+01
     12.011  0.5060E+00  0.5010E+01
     12.130  0.5094E+00  0.5070E+01
     12.248  0.5143E+00  0.5131E+01
     12.367  0.5320E+00  0.5193E+01
     12.485  0.5333E+00  0.5256E+01
     12.604  0.5559E+00  0.5321E+01
     12.723  0.5706E+00  0.5387E+01
     12.841  0.5838E+00  0.5456E+01
     12.960  0.6046E+00  0.5527E+01
     13.078  0.5922E+00  0.5598E+01
     13.197  0.5867E+00  0.5668E+01
     13.315  0.5713E+00  0.5737E+01
     13.434  0.5600E+00  0.5804E+01
     13.552  0.5520E+00  0.5870E+01
     13.671  0.5463E+00  0.5935E+01
     13.790  0.5373E+00  0.5999E+01
     13.908  0.5272E+00  0.6063E+01
     14.027  0.5174E+00  0.6124E+01
     14.145  0.5099E+00  0.6185E+01
     14.264  0.5027E+00  0.6245E+01
     14.382  0.4933E+00  0.6304E+01
     14.501  0.4858E+00  0.6362E+01
     14.619  0.4824E+00  0.6420E+01
     14.738  0.4823E+00  0.6477E+01
     14.857  0.4794E+00  0.6534E+01
     14.975  0.4730E+00  0.6590E+01
     15.094  0.4694E+00  0.6646E+01
     15.212  0.4669E+00  0.6702E+01
     15.331  0.4647E+00  0.6757E+01
     15.449  0.4642E+00  0.6812E+01
     15.568  0.4673E+00  0.6867E+01
     15.686  0.4699E+00  0.6923E+01
     15.805  0.4694E+00  0.6979E+01
     15.924  0.4712E+00  0.7034E+01
     16.042  0.4730E+00  0.7090E+01
     16.161  0.4758E+00  0.7146E+01
     16.279  0.4783E+00  0.7203E+01
     16.398  0.4809E+00  0.7260E+01
     16.516  0.4834E+00  0.7317E+01
     16.635  0.4901E+00  0.7375E+01
     16.753  0.4967E+00  0.7433E+01
     16.872  0.5068E+00  0.7493E+01
     16.991  0.5155E+00  0.7553E+01
     17.109  0.5189E+00  0.7615E+01
     17.228  0.5183E+00  0.7676E+01
     17.346  0.5212E+00  0.7738E+01
     17.465  0.5220E+00  0.7800E+01
     17.583  0.5218E+00  0.7861E+01
     17.702  0.5291E+00  0.7924E+01
     17.820  0.5342E+00  0.7987E+01
     17.939  0.5377E+00  0.8050E+01
     18.058  0.5311E+00  0.8114E+01
     18.176  0.5268E+00  0.8177E+01
     18.295  0.5250E+00  0.8239E+01
     18.413  0.5220E+00  0.8301E+01
     18.532  0.5231E+00  0.8363E+01
     18.650  0.5248E+00  0.8425E+01
     18.769  0.5236E+00  0.8487E+01
     18.887  0.5264E+00  0.8549E+01
     19.006  0.5309E+00  0.8612E+01
     19.124  0.5344E+00  0.8675E+01
     19.243  0.5370E+00  0.8739E+01
     19.362  0.5405E+00  0.8803E+01
     19.480  0.5419E+00  0.8867E+01
     19.599  0.5481E+00  0.8931E+01
     19.717  0.5567E+00  0.8997E+01
     19.836  0.5673E+00  0.9063E+01
     19.954  0.5800E+00  0.9131E+01
     20.073  0.5979E+00  0.9201E+01
     20.191  0.6299E+00  0.9273E+01
     20.310  0.6441E+00  0.9350E+01
     20.429  0.6356E+00  0.9425E+01
     20.547  0.7126E+00  0.9504E+01
     20.666  0.6651E+00  0.9582E+01
     20.784  0.6204E+00  0.9659E+01
     20.903  0.5808E+00  0.9730E+01
     21.021  0.5697E+00  0.9798E+01
     21.140  0.5708E+00  0.9865E+01
     21.258  0.5809E+00  0.9933E+01
     21.377  0.5963E+00  0.1000E+02
     21.496  0.5744E+00  0.1007E+02
     21.614  0.5487E+00  0.1014E+02
     21.733  0.5465E+00  0.1021E+02
     21.851  0.6053E+00  0.1027E+02
     21.970  0.5512E+00  0.1034E+02
     22.088  0.6001E+00  0.1041E+02
     22.207  0.5554E+00  0.1047E+02
     22.325  0.5242E+00  0.1054E+02
     22.444  0.5318E+00  0.1060E+02
     22.563  0.5618E+00  0.1067E+02
     22.681  0.5553E+00  0.1073E+02
     22.800  0.6055E+00  0.1080E+02
     22.918  0.6401E+00  0.1087E+02
     23.037  0.6484E+00  0.1095E+02
     23.155  0.6615E+00  0.1103E+02
     23.274  0.6892E+00  0.1111E+02
     23.392  0.6711E+00  0.1119E+02
     23.511  0.6795E+00  0.1127E+02
     23.630  0.6977E+00  0.1135E+02
     23.748  0.6713E+00  0.1143E+02
     23.867  0.5291E+00  0.1151E+02
     23.985  0.4365E+00  0.1156E+02
     24.104  0.3940E+00  0.1161E+02
     24.222  0.3465E+00  0.1166E+02
     24.341  0.3015E+00  0.1169E+02
     24.459  0.2542E+00  0.1173E+02
     24.578  0.2215E+00  0.1176E+02
     24.697  0.2014E+00  0.1178E+02
     24.815  0.1873E+00  0.1180E+02
     24.934  0.1770E+00  0.1182E+02
     25.052  0.1750E+00  0.1185E+02
     25.171  0.1604E+00  0.1187E+02
     25.289  0.1469E+00  0.1188E+02
     25.408  0.1264E+00  0.1190E+02
     25.526  0.1139E+00  0.1191E+02
     25.645  0.9545E-01  0.1193E+02
     25.764  0.8434E-01  0.1194E+02
     25.882  0.7475E-01  0.1195E+02
     26.001  0.6682E-01  0.1195E+02
     26.119  0.5901E-01  0.1196E+02
     26.238  0.5180E-01  0.1197E+02
     26.356  0.4510E-01  0.1197E+02
     26.475  0.3890E-01  0.1198E+02
     26.593  0.3354E-01  0.1198E+02
     26.712  0.2929E-01  0.1199E+02
     26.830  0.2725E-01  0.1199E+02
     26.949  0.3281E-01  0.1199E+02
     27.068  0.2568E-01  0.1200E+02
     27.186  0.5000E-02  0.1200E+02
     27.305  0.0000E+00  0.1200E+02
     27.423  0.0000E+00  0.1200E+02
     27.542  0.0000E+00  0.1200E+02
     27.660  0.0000E+00  0.1200E+02
     27.779  0.0000E+00  0.1200E+02
     27.897  0.0000E+00  0.1200E+02
     28.016  0.0000E+00  0.1200E+02
     28.135  0.0000E+00  0.1200E+02
     28.253  0.0000E+00  0.1200E+02
     28.372  0.0000E+00  0.1200E+02
     28.490  0.0000E+00  0.1200E+02
     28.609  0.0000E+00  0.1200E+02
     28.727  0.0000E+00  0.1200E+02
     28.846  0.0000E+00  0.1200E+02
     28.964  0.0000E+00  0.1200E+02
     29.083  0.0000E+00  0.1200E+02
     29.202  0.0000E+00  0.1200E+02
     29.20156940     -6.36456989  301      9.85284164      1.00000000
     -6.365  0.0000E+00  0.0000E+00  0.0000E+00  0.0000E+00  0.0000E+00  0.0000E+00  0.0000E+00  0.0000E+00  0.0000E+00
     -6.246  0.0000E+00  0.0000E+00  0.0000E+00  0.0000E+00  0.0000E+00  0.0000E+00  0.0000E+00  0.0000E+00  0.0000E+00
     -6.127  0.0000E+00  0.0000E+00  0.0000E+00  0.0000E+00  0.0000E+00  0.0000E+00  0.0000E+00  0.0000E+00  0.0000E+00
     -6.009  0.0000E+00  0.0000E+00  0.0000E+00  0.0000E+00  0.0000E+00  0.0000E+00  0.0000E+00  0.0000E+00  0.0000E+00
     -5.890  0.0000E+00  0.0000E+00  0.0000E+00  0.0000E+00  0.0000E+00  0.0000E+00  0.0000E+00  0.0000E+00  0.0000E+00
     -5.772  0.0000E+00  0.0000E+00  0.0000E+00  0.0000E+00  0.0000E+00  0.0000E+00  0.0000E+00  0.0000E+00  0.0000E+00
     -5.653  0.0000E+00  0.0000E+00  0.0000E+00  0.0000E+00  0.0000E+00  0.0000E+00  0.0000E+00  0.0000E+00  0.0000E+00
     -5.535  0.0000E+00  0.0000E+00  0.0000E+00  0.0000E+00  0.0000E+00  0.0000E+00  0.0000E+00  0.0000E+00  0.0000E+00
     -5.416  0.0000E+00  0.0000E+00  0.0000E+00  0.0000E+00  0.0000E+00  0.0000E+00  0.0000E+00  0.0000E+00  0.0000E+00
     -5.298  0.0000E+00  0.0000E+00  0.0000E+00  0.0000E+00  0.0000E+00  0.0000E+00  0.0000E+00  0.0000E+00  0.0000E+00
     -5.179  0.0000E+00  0.0000E+00  0.0000E+00  0.0000E+00  0.0000E+00  0.0000E+00  0.0000E+00  0.0000E+00  0.0000E+00
     -5.060  0.0000E+00  0.0000E+00  0.0000E+00  0.0000E+00  0.0000E+00  0.0000E+00  0.0000E+00  0.0000E+00  0.0000E+00
     -4.942  0.0000E+00  0.0000E+00  0.0000E+00  0.0000E+00  0.0000E+00  0.0000E+00  0.0000E+00  0.0000E+00  0.0000E+00
     -4.823  0.0000E+00  0.0000E+00  0.0000E+00  0.0000E+00  0.0000E+00  0.0000E+00  0.0000E+00  0.0000E+00  0.0000E+00
     -4.705  0.0000E+00  0.0000E+00  0.0000E+00  0.0000E+00  0.0000E+00  0.0000E+00  0.0000E+00  0.0000E+00  0.0000E+00
     -4.586  0.0000E+00  0.0000E+00  0.0000E+00  0.0000E+00  0.0000E+00  0.0000E+00  0.0000E+00  0.0000E+00  0.0000E+00
     -4.468  0.0000E+00  0.0000E+00  0.0000E+00  0.0000E+00  0.0000E+00  0.0000E+00  0.0000E+00  0.0000E+00  0.0000E+00
     -4.349  0.6506E-03  0.1439E-05  0.4794E-06  0.4794E-06  0.0000E+00  0.0000E+00  0.0000E+00  0.0000E+00  0.0000E+00
     -4.231  0.1334E-01  0.7045E-04  0.3242E-04  0.3242E-04  0.0000E+00  0.0000E+00  0.0000E+00  0.0000E+00  0.0000E+00
     -4.112  0.1921E-01  0.1815E-03  0.8264E-04  0.9415E-04  0.0000E+00  0.0000E+00  0.0000E+00  0.0000E+00  0.0000E+00
     -3.993  0.2428E-01  0.3552E-03  0.1160E-03  0.1412E-03  0.0000E+00  0.0000E+00  0.0000E+00  0.0000E+00  0.0000E+00
     -3.875  0.2759E-01  0.5490E-03  0.1663E-03  0.2254E-03  0.0000E+00  0.0000E+00  0.0000E+00  0.0000E+00  0.0000E+00
     -3.756  0.3062E-01  0.7665E-03  0.2158E-03  0.3110E-03  0.0000E+00  0.0000E+00  0.0000E+00  0.0000E+00  0.0000E+00
     -3.638  0.3401E-01  0.1003E-02  0.2781E-03  0.3821E-03  0.0000E+00  0.0000E+00  0.0000E+00  0.0000E+00  0.0000E+00
     -3.519  0.3586E-01  0.1204E-02  0.4095E-03  0.4972E-03  0.0000E+00  0.0000E+00  0.0000E+00  0.0000E+00  0.0000E+00
     -3.401  0.3815E-01  0.1447E-02  0.4950E-03  0.6123E-03  0.0000E+00  0.0000E+00  0.0000E+00  0.0000E+00  0.0000E+00
     -3.282  0.4076E-01  0.1723E-02  0.5791E-03  0.6975E-03  0.0000E+00  0.0000E+00  0.0000E+00  0.0000E+00  0.0000E+00
     -3.164  0.4228E-01  0.1921E-02  0.7850E-03  0.8195E-03  0.0000E+00  0.0000E+00  0.0000E+00  0.0000E+00  0.0000E+00
     -3.045  0.4392E-01  0.2210E-02  0.8958E-03  0.9473E-03  0.0000E+00  0.0000E+00  0.0000E+00  0.0000E+00  0.0000E+00
     -2.927  0.4573E-01  0.2534E-02  0.9689E-03  0.1079E-02  0.0000E+00  0.0000E+00  0.0000E+00  0.0000E+00  0.0000E+00
     -2.808  0.4770E-01  0.2859E-02  0.1060E-02  0.1193E-02  0.0000E+00  0.0000E+00  0.0000E+00  0.0000E+00  0.0000E+00
     -2.689  0.4888E-01  0.3164E-02  0.1225E-02  0.1329E-02  0.0000E+00  0.0000E+00  0.0000E+00  0.0000E+00  0.0000E+00
     -2.571  0.5006E-01  0.3444E-02  0.1420E-02  0.1470E-02  0.0000E+00  0.0000E+00  0.0000E+00  0.0000E+00  0.0000E+00
     -2.452  0.5146E-01  0.3833E-02  0.1496E-02  0.1608E-02  0.0000E+00  0.0000E+00  0.0000E+00  0.0000E+00  0.0000E+00
     -2.334  0.5293E-01  0.4230E-02  0.1564E-02  0.1751E-02  0.0000E+00  0.0000E+00  0.0000E+00  0.0000E+00  0.0000E+00
     -2.215  0.5427E-01  0.4620E-02  0.1661E-02  0.1898E-02  0.0000E+00  0.0000E+00  0.0000E+00  0.0000E+00  0.0000E+00
     -2.097  0.5515E-01  0.4971E-02  0.1842E-02  0.2058E-02  0.0000E+00  0.0000E+00  0.0000E+00  0.0000E+00  0.0000E+00
     -1.978  0.5617E-01  0.5254E-02  0.2094E-02  0.2206E-02  0.0000E+00  0.0000E+00  0.0000E+00  0.0000E+00  0.0000E+00
     -1.860  0.5720E-01  0.5586E-02  0.2299E-02  0.2358E-02  0.0000E+00  0.0000E+00  0.0000E+00  0.0000E+00  0.0000E+00
     -1.741  0.5836E-01  0.6009E-02  0.2409E-02  0.2507E-02  0.0000E+00  0.0000E+00  0.0000E+00  0.0000E+00  0.0000E+00
     -1.622  0.5956E-01  0.6441E-02  0.2509E-02  0.2660E-02  0.0000E+00  0.0000E+00  0.0000E+00  0.0000E+00  0.0000E+00
     -1.504  0.6030E-01  0.6853E-02  0.2664E-02  0.2845E-02  0.0000E+00  0.0000E+00  0.0000E+00  0.0000E+00  0.0000E+00
     -1.385  0.6102E-01  0.7165E-02  0.2935E-02  0.3019E-02  0.0000E+00  0.0000E+00  0.0000E+00  0.0000E+00  0.0000E+00
     -1.267  0.6184E-01  0.7500E-02  0.3188E-02  0.3181E-02  0.0000E+00  0.0000E+00  0.0000E+00  0.0000E+00  0.0000E+00
     -1.148  0.6268E-01  0.7891E-02  0.3391E-02  0.3338E-02  0.0000E+00  0.0000E+00  0.0000E+00  0.0000E+00  0.0000E+00
     -1.030  0.6358E-01  0.8319E-02  0.3554E-02  0.3496E-02  0.0000E+00  0.0000E+00  0.0000E+00  0.0000E+00  0.0000E+00
     -0.911  0.6454E-01  0.8803E-02  0.3659E-02  0.3652E-02  0.0000E+00  0.0000E+00  0.0000E+00  0.0000E+00  0.0000E+00
     -0.793  0.6519E-01  0.9294E-02  0.3780E-02  0.3837E-02  0.0000E+00  0.0000E+00  0.0000E+00  0.0000E+00  0.0000E+00
     -0.674  0.6574E-01  0.9722E-02  0.3974E-02  0.4032E-02  0.0000E+00  0.0000E+00  0.0000E+00  0.0000E+00  0.0000E+00
     -0.555  0.6636E-01  0.1010E-01  0.4220E-02  0.4210E-02  0.0000E+00  0.0000E+00  0.0000E+00  0.0000E+00  0.0000E+00
     -0.437  0.6704E-01  0.1054E-01  0.4416E-02  0.4378E-02  0.0000E+00  0.0000E+00  0.0000E+00  0.0000E+00  0.0000E+00
     -0.318  0.6777E-01  0.1100E-01  0.4588E-02  0.4537E-02  0.0000E+00  0.0000E+00  0.0000E+00  0.0000E+00  0.0000E+00
     -0.200  0.6850E-01  0.1147E-01  0.4764E-02  0.4694E-02  0.0000E+00  0.0000E+00  0.0000E+00  0.0000E+00  0.0000E+00
     -0.081  0.6929E-01  0.1197E-01  0.4897E-02  0.4849E-02  0.0000E+00  0.0000E+00  0.0000E+00  0.0000E+00  0.0000E+00
      0.037  0.6977E-01  0.1250E-01  0.5021E-02  0.5033E-02  0.0000E+00  0.0000E+00  0.0000E+00  0.0000E+00  0.0000E+00
      0.156  0.7025E-01  0.1303E-01  0.5155E-02  0.5219E-02  0.0000E+00  0.0000E+00  0.0000E+00  0.0000E+00  0.0000E+00
      0.274  0.7080E-01  0.1342E-01  0.5409E-02  0.5402E-02  0.0000E+00  0.0000E+00  0.0000E+00  0.0000E+00  0.0000E+00
      0.393  0.7139E-01  0.1380E-01  0.5684E-02  0.5569E-02  0.0000E+00  0.0000E+00  0.0000E+00  0.0000E+00  0.0000E+00
      0.512  0.7203E-01  0.1426E-01  0.5884E-02  0.5726E-02  0.0000E+00  0.0000E+00  0.0000E+00  0.0000E+00  0.0000E+00
      0.630  0.7272E-01  0.1475E-01  0.6048E-02  0.5872E-02  0.0000E+00  0.0000E+00  0.0000E+00  0.0000E+00  0.0000E+00
      0.749  0.7345E-01  0.1523E-01  0.6229E-02  0.6012E-02  0.0000E+00  0.0000E+00  0.0000E+00  0.0000E+00  0.0000E+00
      0.867  0.7407E-01  0.1571E-01  0.6415E-02  0.6160E-02  0.0000E+00  0.0000E+00  0.0000E+00  0.0000E+00  0.0000E+00
      0.986  0.7461E-01  0.1622E-01  0.6565E-02  0.6314E-02  0.0000E+00  0.0000E+00  0.0000E+00  0.0000E+00  0.0000E+00
      1.104  0.7525E-01  0.1672E-01  0.6724E-02  0.6459E-02  0.0000E+00  0.0000E+00  0.0000E+00  0.0000E+00  0.0000E+00
      1.223  0.7597E-01  0.1710E-01  0.6981E-02  0.6598E-02  0.0000E+00  0.0000E+00  0.0000E+00  0.0000E+00  0.0000E+00
      1.341  0.7682E-01  0.1747E-01  0.7230E-02  0.6724E-02  0.0000E+00  0.0000E+00  0.0000E+00  0.0000E+00  0.0000E+00
      1.460  0.7780E-01  0.1788E-01  0.7425E-02  0.6827E-02  0.0000E+00  0.0000E+00  0.0000E+00  0.0000E+00  0.0000E+00
      1.579  0.7901E-01  0.1839E-01  0.7500E-02  0.6905E-02  0.0000E+00  0.0000E+00  0.0000E+00  0.0000E+00  0.0000E+00
      1.697  0.8056E-01  0.1891E-01  0.7560E-02  0.6965E-02  0.0000E+00  0.0000E+00  0.0000E+00  0.0000E+00  0.0000E+00
      1.816  0.8248E-01  0.1940E-01  0.7649E-02  0.7028E-02  0.0000E+00  0.0000E+00  0.0000E+00  0.0000E+00  0.0000E+00
      1.934  0.8511E-01  0.1993E-01  0.7763E-02  0.7110E-02  0.0000E+00  0.0000E+00  0.0000E+00  0.0000E+00  0.0000E+00
      2.053  0.8953E-01  0.2050E-01  0.7915E-02  0.7225E-02  0.0000E+00  0.0000E+00  0.0000E+00  0.0000E+00  0.0000E+00
      2.171  0.9927E-01  0.2142E-01  0.8209E-02  0.7516E-02  0.0000E+00  0.0000E+00  0.0000E+00  0.0000E+00  0.0000E+00
      2.290  0.9231E-01  0.2134E-01  0.8045E-02  0.7118E-02  0.0000E+00  0.0000E+00  0.0000E+00  0.0000E+00  0.0000E+00
      2.408  0.8927E-01  0.2140E-01  0.8036E-02  0.6881E-02  0.0000E+00  0.0000E+00  0.0000E+00  0.0000E+00  0.0000E+00
      2.527  0.9067E-01  0.2191E-01  0.8103E-02  0.6817E-02  0.0000E+00  0.0000E+00  0.0000E+00  0.0000E+00  0.0000E+00
      2.646  0.8703E-01  0.2230E-01  0.7754E-02  0.6532E-02  0.0000E+00  0.0000E+00  0.0000E+00  0.0000E+00  0.0000E+00
      2.764  0.8235E-01  0.2225E-01  0.7574E-02  0.6255E-02  0.0000E+00  0.0000E+00  0.0000E+00  0.0000E+00  0.0000E+00
      2.883  0.7879E-01  0.2231E-01  0.7425E-02  0.6021E-02  0.0000E+00  0.0000E+00  0.0000E+00  0.0000E+00  0.0000E+00
      3.001  0.7749E-01  0.2261E-01  0.7343E-02  0.5846E-02  0.0000E+00  0.0000E+00  0.0000E+00  0.0000E+00  0.0000E+00
      3.120  0.7944E-01  0.2338E-01  0.7421E-02  0.5762E-02  0.0000E+00  0.0000E+00  0.0000E+00  0.0000E+00  0.0000E+00
      3.238  0.7317E-01  0.2410E-01  0.7855E-02  0.6217E-02  0.0000E+00  0.0000E+00  0.0000E+00  0.0000E+00  0.0000E+00
      3.357  0.7428E-01  0.2618E-01  0.9542E-02  0.7704E-02  0.0000E+00  0.0000E+00  0.0000E+00  0.0000E+00  0.0000E+00
      3.475  0.7107E-01  0.2778E-01  0.1114E-01  0.9168E-02  0.0000E+00  0.0000E+00  0.0000E+00  0.0000E+00  0.0000E+00
      3.594  0.6948E-01  0.3009E-01  0.1340E-01  0.1120E-01  0.0000E+00  0.0000E+00  0.0000E+00  0.0000E+00  0.0000E+00
      3.713  0.6690E-01  0.2978E-01  0.1268E-01  0.1040E-01  0.0000E+00  0.0000E+00  0.0000E+00  0.0000E+00  0.0000E+00
      3.831  0.6687E-01  0.3154E-01  0.1401E-01  0.1150E-01  0.0000E+00  0.0000E+00  0.0000E+00  0.0000E+00  0.0000E+00
      3.950  0.6916E-01  0.3574E-01  0.1730E-01  0.1435E-01  0.0000E+00  0.0000E+00  0.0000E+00  0.0000E+00  0.0000E+00
      4.068  0.6731E-01  0.3548E-01  0.1631E-01  0.1312E-01  0.0000E+00  0.0000E+00  0.0000E+00  0.0000E+00  0.0000E+00
      4.187  0.6266E-01  0.3672E-01  0.1566E-01  0.1273E-01  0.0000E+00  0.0000E+00  0.0000E+00  0.0000E+00  0.0000E+00
      4.305  0.6091E-01  0.3962E-01  0.1616E-01  0.1318E-01  0.0000E+00  0.0000E+00  0.0000E+00  0.0000E+00  0.0000E+00
      4.424  0.6069E-01  0.4238E-01  0.1710E-01  0.1392E-01  0.0000E+00  0.0000E+00  0.0000E+00  0.0000E+00  0.0000E+00
      4.542  0.5978E-01  0.4542E-01  0.1835E-01  0.1497E-01  0.0000E+00  0.0000E+00  0.0000E+00  0.0000E+00  0.0000E+00
      4.661  0.5741E-01  0.4527E-01  0.1966E-01  0.1595E-01  0.0000E+00  0.0000E+00  0.0000E+00  0.0000E+00  0.0000E+00
      4.779  0.5410E-01  0.4223E-01  0.1906E-01  0.1513E-01  0.0000E+00  0.0000E+00  0.0000E+00  0.0000E+00  0.0000E+00
      4.898  0.5294E-01  0.4236E-01  0.1995E-01  0.1565E-01  0.0000E+00  0.0000E+00  0.0000E+00  0.0000E+00  0.0000E+00
      5.017  0.5205E-01  0.4302E-01  0.2080E-01  0.1623E-01  0.0000E+00  0.0000E+00  0.0000E+00  0.0000E+00  0.0000E+00
      5.135  0.4788E-01  0.4199E-01  0.2069E-01  0.1612E-01  0.0000E+00  0.0000E+00  0.0000E+00  0.0000E+00  0.0000E+00
      5.254  0.4486E-01  0.3876E-01  0.2126E-01  0.1644E-01  0.0000E+00  0.0000E+00  0.0000E+00  0.0000E+00  0.0000E+00
      5.372  0.4159E-01  0.3632E-01  0.2192E-01  0.1692E-01  0.0000E+00  0.0000E+00  0.0000E+00  0.0000E+00  0.0000E+00
      5.491  0.4124E-01  0.3800E-01  0.2261E-01  0.1754E-01  0.0000E+00  0.0000E+00  0.0000E+00  0.0000E+00  0.0000E+00
      5.609  0.4253E-01  0.3626E-01  0.2308E-01  0.1783E-01  0.0000E+00  0.0000E+00  0.0000E+00  0.0000E+00  0.0000E+00
      5.728  0.4619E-01  0.3522E-01  0.2320E-01  0.1779E-01  0.0000E+00  0.0000E+00  0.0000E+00  0.0000E+00  0.0000E+00
      5.846  0.5158E-01  0.3793E-01  0.2365E-01  0.1797E-01  0.0000E+00  0.0000E+00  0.0000E+00  0.0000E+00  0.0000E+00
      5.965  0.6130E-01  0.4344E-01  0.2502E-01  0.1869E-01  0.0000E+00  0.0000E+00  0.0000E+00  0.0000E+00  0.0000E+00
      6.084  0.7164E-01  0.4754E-01  0.2618E-01  0.1914E-01  0.0000E+00  0.0000E+00  0.0000E+00  0.0000E+00  0.0000E+00
      6.202  0.7424E-01  0.4685E-01  0.2643E-01  0.1886E-01  0.0000E+00  0.0000E+00  0.0000E+00  0.0000E+00  0.0000E+00
      6.321  0.7085E-01  0.4326E-01  0.2602E-01  0.1809E-01  0.0000E+00  0.0000E+00  0.0000E+00  0.0000E+00  0.0000E+00
      6.439  0.7287E-01  0.4458E-01  0.2701E-01  0.1771E-01  0.0000E+00  0.0000E+00  0.0000E+00  0.0000E+00  0.0000E+00
      6.558  0.7221E-01  0.4424E-01  0.2782E-01  0.1721E-01  0.0000E+00  0.0000E+00  0.0000E+00  0.0000E+00  0.0000E+00
      6.676  0.6173E-01  0.3994E-01  0.2677E-01  0.1624E-01  0.0000E+00  0.0000E+00  0.0000E+00  0.0000E+00  0.0000E+00
      6.795  0.6029E-01  0.3910E-01  0.2700E-01  0.1579E-01  0.0000E+00  0.0000E+00  0.0000E+00  0.0000E+00  0.0000E+00
      6.913  0.5787E-01  0.3899E-01  0.2677E-01  0.1541E-01  0.0000E+00  0.0000E+00  0.0000E+00  0.0000E+00  0.0000E+00
      7.032  0.5490E-01  0.3672E-01  0.2696E-01  0.1582E-01  0.0000E+00  0.0000E+00  0.0000E+00  0.0000E+00  0.0000E+00
      7.151  0.5210E-01  0.3577E-01  0.2728E-01  0.1785E-01  0.0000E+00  0.0000E+00  0.0000E+00  0.0000E+00  0.0000E+00
      7.269  0.5115E-01  0.3499E-01  0.2725E-01  0.1840E-01  0.0000E+00  0.0000E+00  0.0000E+00  0.0000E+00  0.0000E+00
      7.388  0.7145E-01  0.4228E-01  0.3507E-01  0.2221E-01  0.0000E+00  0.0000E+00  0.0000E+00  0.0000E+00  0.0000E+00
      7.506  0.5758E-01  0.3743E-01  0.3353E-01  0.2153E-01  0.0000E+00  0.0000E+00  0.0000E+00  0.0000E+00  0.0000E+00
      7.625  0.5886E-01  0.3730E-01  0.3483E-01  0.2210E-01  0.0000E+00  0.0000E+00  0.0000E+00  0.0000E+00  0.0000E+00
      7.743  0.5875E-01  0.3864E-01  0.3571E-01  0.2229E-01  0.0000E+00  0.0000E+00  0.0000E+00  0.0000E+00  0.0000E+00
      7.862  0.6055E-01  0.3860E-01  0.3660E-01  0.2303E-01  0.0000E+00  0.0000E+00  0.0000E+00  0.0000E+00  0.0000E+00
      7.980  0.6193E-01  0.3903E-01  0.3725E-01  0.2361E-01  0.0000E+00  0.0000E+00  0.0000E+00  0.0000E+00  0.0000E+00
      8.099  0.5794E-01  0.3909E-01  0.3845E-01  0.2301E-01  0.0000E+00  0.0000E+00  0.0000E+00  0.0000E+00  0.0000E+00
      8.218  0.5976E-01  0.4074E-01  0.3838E-01  0.2311E-01  0.0000E+00  0.0000E+00  0.0000E+00  0.0000E+00  0.0000E+00
      8.336  0.6126E-01  0.4211E-01  0.4299E-01  0.2348E-01  0.0000E+00  0.0000E+00  0.0000E+00  0.0000E+00  0.0000E+00
      8.455  0.5606E-01  0.3947E-01  0.3667E-01  0.2255E-01  0.0000E+00  0.0000E+00  0.0000E+00  0.0000E+00  0.0000E+00
      8.573  0.5593E-01  0.3932E-01  0.3621E-01  0.2266E-01  0.0000E+00  0.0000E+00  0.0000E+00  0.0000E+00  0.0000E+00
      8.692  0.5584E-01  0.3979E-01  0.3696E-01  0.2410E-01  0.0000E+00  0.0000E+00  0.0000E+00  0.0000E+00  0.0000E+00
      8.810  0.5471E-01  0.4023E-01  0.3762E-01  0.2452E-01  0.0000E+00  0.0000E+00  0.0000E+00  0.0000E+00  0.0000E+00
      8.929  0.5446E-01  0.4077E-01  0.3739E-01  0.2556E-01  0.0000E+00  0.0000E+00  0.0000E+00  0.0000E+00  0.0000E+00
      9.047  0.5504E-01  0.4193E-01  0.3784E-01  0.2729E-01  0.0000E+00  0.0000E+00  0.0000E+00  0.0000E+00  0.0000E+00
      9.166  0.5361E-01  0.4153E-01  0.3809E-01  0.2796E-01  0.0000E+00  0.0000E+00  0.0000E+00  0.0000E+00  0.0000E+00
      9.285  0.5362E-01  0.4177E-01  0.4062E-01  0.2910E-01  0.0000E+00  0.0000E+00  0.0000E+00  0.0000E+00  0.0000E+00
      9.403  0.5304E-01  0.4184E-01  0.4087E-01  0.2958E-01  0.0000E+00  0.0000E+00  0.0000E+00  0.0000E+00  0.0000E+00
      9.522  0.5398E-01  0.4242E-01  0.4099E-01  0.3024E-01  0.0000E+00  0.0000E+00  0.0000E+00  0.0000E+00  0.0000E+00
      9.640  0.5371E-01  0.4286E-01  0.4183E-01  0.3082E-01  0.0000E+00  0.0000E+00  0.0000E+00  0.0000E+00  0.0000E+00
      9.759  0.5257E-01  0.4310E-01  0.4223E-01  0.3132E-01  0.0000E+00  0.0000E+00  0.0000E+00  0.0000E+00  0.0000E+00
      9.877  0.5211E-01  0.4354E-01  0.4244E-01  0.3234E-01  0.0000E+00  0.0000E+00  0.0000E+00  0.0000E+00  0.0000E+00
      9.996  0.5144E-01  0.4349E-01  0.4166E-01  0.3360E-01  0.0000E+00  0.0000E+00  0.0000E+00  0.0000E+00  0.0000E+00
     10.114  0.5101E-01  0.4353E-01  0.4159E-01  0.3480E-01  0.0000E+00  0.0000E+00  0.0000E+00  0.0000E+00  0.0000E+00
     10.233  0.5005E-01  0.4293E-01  0.4206E-01  0.3561E-01  0.0000E+00  0.0000E+00  0.0000E+00  0.0000E+00  0.0000E+00
     10.352  0.4896E-01  0.4277E-01  0.4269E-01  0.3532E-01  0.0000E+00  0.0000E+00  0.0000E+00  0.0000E+00  0.0000E+00
     10.470  0.4881E-01  0.4311E-01  0.4387E-01  0.3624E-01  0.0000E+00  0.0000E+00  0.0000E+00  0.0000E+00  0.0000E+00
     10.589  0.4804E-01  0.4329E-01  0.4582E-01  0.3749E-01  0.0000E+00  0.0000E+00  0.0000E+00  0.0000E+00  0.0000E+00
     10.707  0.4741E-01  0.4371E-01  0.4612E-01  0.3826E-01  0.0000E+00  0.0000E+00  0.0000E+00  0.0000E+00  0.0000E+00
     10.826  0.4731E-01  0.4424E-01  0.4692E-01  0.3941E-01  0.0000E+00  0.0000E+00  0.0000E+00  0.0000E+00  0.0000E+00
     10.944  0.4719E-01  0.4479E-01  0.4867E-01  0.4073E-01  0.0000E+00  0.0000E+00  0.0000E+00  0.0000E+00  0.0000E+00
     11.063  0.4718E-01  0.4491E-01  0.4828E-01  0.4176E-01  0.0000E+00  0.0000E+00  0.0000E+00  0.0000E+00  0.0000E+00
     11.181  0.4767E-01  0.4506E-01  0.4976E-01  0.4457E-01  0.0000E+00  0.0000E+00  0.0000E+00  0.0000E+00  0.0000E+00
     11.300  0.4610E-01  0.4452E-01  0.5053E-01  0.4496E-01  0.0000E+00  0.0000E+00  0.0000E+00  0.0000E+00  0.0000E+00
     11.418  0.4448E-01  0.4413E-01  0.5084E-01  0.4491E-01  0.0000E+00  0.0000E+00  0.0000E+00  0.0000E+00  0.0000E+00
     11.537  0.4396E-01  0.4419E-01  0.5162E-01  0.4741E-01  0.0000E+00  0.0000E+00  0.0000E+00  0.0000E+00  0.0000E+00
     11.656  0.4336E-01  0.4450E-01  0.5248E-01  0.4819E-01  0.0000E+00  0.0000E+00  0.0000E+00  0.0000E+00  0.0000E+00
     11.774  0.4314E-01  0.4500E-01  0.5407E-01  0.4969E-01  0.0000E+00  0.0000E+00  0.0000E+00  0.0000E+00  0.0000E+00
     11.893  0.4234E-01  0.4491E-01  0.5480E-01  0.5130E-01  0.0000E+00  0.0000E+00  0.0000E+00  0.0000E+00  0.0000E+00
     12.011  0.4175E-01  0.4514E-01  0.5705E-01  0.5372E-01  0.0000E+00  0.0000E+00  0.0000E+00  0.0000E+00  0.0000E+00
     12.130  0.4122E-01  0.4524E-01  0.5752E-01  0.5577E-01  0.0000E+00  0.0000E+00  0.0000E+00  0.0000E+00  0.0000E+00