    1    1    1    1
  0.1482975E+02  0.2757716E-09  0.2757716E-09  0.2757716E-09  0.5000000E-15
  1.000000000000000E-004
  CAR 
 fcc Si                                  
      4    286      6
 
  0.0000000E+00  0.0000000E+00  0.0000000E+00  0.1079797E-03
    1       -4.364570
    2       20.479392
    3       20.479618
    4       20.479622
    5       21.724966
    6       21.725149
 
  0.4761905E-01  0.0000000E+00  0.0000000E+00  0.8638376E-03
    1       -4.299561
    2       19.310204
    3       20.162657
    4       20.162872
    5       22.159488
    6       22.159669
 
  0.9523810E-01  0.0000000E+00  0.0000000E+00  0.8638376E-03
    1       -4.105417
    2       17.443305
    3       19.638929
    4       19.639148
    5       22.772008
    6       22.890226
 
  0.1428571E+00  0.0000000E+00  0.0000000E+00  0.8638376E-03
    1       -3.782307
    2       15.464736
    3       19.153492
    4       19.153714
    5       22.852084
    6       23.570918
 
  0.1904762E+00  0.0000000E+00  0.0000000E+00  0.8638376E-03
    1       -3.330985
    2       13.486400
    3       18.750894
    4       18.751119
    5       22.793695
    6       23.761436
 
  0.2380952E+00  0.0000000E+00  0.0000000E+00  0.8638376E-03
    1       -2.752383
    2       11.567360
    3       18.440698
    4       18.440921
    5       22.714976
    6       23.296443
 
  0.2857143E+00  0.0000000E+00  0.0000000E+00  0.8638376E-03
    1       -2.047839
    2        9.729241
    3       18.222455
    4       18.222672
    5       22.612003
    6       22.626559
 
  0.3333333E+00  0.0000000E+00  0.0000000E+00  0.8638376E-03
    1       -1.218199
    2        7.985909
    3       18.093429
    4       18.093615
    5       21.940902
    6       21.941707
 
  0.3809524E+00  0.0000000E+00  0.0000000E+00  0.8638376E-03
    1       -0.267540
    2        6.344332
    3       18.031034
    4       18.031204
    5       21.372520
    6       21.373319
 
  0.4285714E+00  0.0000000E+00  0.0000000E+00  0.8638376E-03
    1        0.795705
    2        4.817423
    3       18.017448
    4       18.017596
    5       20.956760
    6       20.957565
 
  0.4761905E+00  0.0000000E+00  0.0000000E+00  0.8638376E-03
    1        1.926001
    2        3.455332
    3       18.022994
    4       18.023130
    5       20.734714
    6       20.735527
 
  0.4761905E-01  0.4761905E-01  0.0000000E+00  0.6478782E-03
    1       -4.277891
    2       19.540357
    3       19.540515
    4       20.273772
    5       21.265270
    6       22.825020
 
  0.9523810E-01  0.4761905E-01  0.0000000E+00  0.2591513E-02
    1       -4.126942
    2       18.088382
    3       18.933437
    4       20.081775
    5       21.368319
    6       23.418975
 
  0.1428571E+00  0.4761905E-01  0.0000000E+00  0.2591513E-02
    1       -3.846799
    2       16.163788
    3       18.406193
    4       19.652827
    5       21.995951
    6       23.689362
 
  0.1904762E+00  0.4761905E-01  0.0000000E+00  0.2591513E-02
    1       -3.438260
    2       14.184829
    3       17.975192
    4       19.224734
    5       22.390945
    6       23.675097
 
  0.2380952E+00  0.4761905E-01  0.0000000E+00  0.2591513E-02
    1       -2.902081
    2       12.249938
    3       17.646634
    4       18.856836
    5       22.237498
    6       23.430200
 
  0.2857143E+00  0.4761905E-01  0.0000000E+00  0.2591513E-02
    1       -2.239544
    2       10.384165
    3       17.420700
    4       18.550454
    5       21.673593
    6       23.273945
 
  0.3333333E+00  0.4761905E-01  0.0000000E+00  0.2591513E-02
    1       -1.451895
    2        8.608211
    3       17.299682
    4       18.289876
    5       21.079807
    6       23.054169
 
  0.3809524E+00  0.4761905E-01  0.0000000E+00  0.2591513E-02
    1       -0.540994
    2        6.932606
    3       17.277768
    4       18.046636
    5       20.629527
    6       22.377898
 
  0.4285714E+00  0.4761905E-01  0.0000000E+00  0.2591513E-02
    1        0.485971
    2        5.366415
    3       17.350368
    4       17.791068
    5       20.385682
    6       21.815625
 
  0.4761905E+00  0.4761905E-01  0.0000000E+00  0.2591513E-02
    1        1.608874
    2        3.934553
    3       17.507362
    4       17.519043
    5       20.356392
    6       21.377295
 
 -0.4761905E+00  0.4761905E-01  0.0000000E+00  0.2591513E-02
    1        2.287183
    2        3.179095
    3       17.263541
    4       17.735809
    5       20.551727
    6       21.099792
 
 -0.4285714E+00  0.4761905E-01  0.0000000E+00  0.2591513E-02
    1        1.227727
    2        4.392880
    3       17.055882
    4       18.002344
    5       20.901638
    6       20.972135
 
 -0.3809524E+00  0.4761905E-01  0.0000000E+00  0.2591513E-02
    1        0.131324
    2        5.875463
    3       16.925317
    4       18.285244
    5       21.054224
    6       21.406093
 
 -0.3333333E+00  0.4761905E-01  0.0000000E+00  0.2591513E-02
    1       -0.858210
    2        7.479319
    3       16.879545
    4       18.562040
    5       21.353080
    6       22.035825
 
 -0.2857143E+00  0.4761905E-01  0.0000000E+00  0.2591513E-02
    1       -1.728059
    2        9.189613
    3       16.930322
    4       18.836861
    5       21.838950
    6       22.749285
 
 -0.2380952E+00  0.4761905E-01  0.0000000E+00  0.2591513E-02
    1       -2.474363
    2       10.996381
    3       17.084747
    4       19.134749
    5       22.448517
    6       23.065176
 
 -0.1904762E+00  0.4761905E-01  0.0000000E+00  0.2591513E-02
    1       -3.094920
    2       12.887440
    3       17.343731
    4       19.476069
    5       22.998063
    6       23.104299
 
 -0.1428571E+00  0.4761905E-01  0.0000000E+00  0.2591513E-02
    1       -3.588675
    2       14.841158
    3       17.705638
    4       19.870469
    5       22.995898
    6       23.108503
 
 -0.9523810E-01  0.4761905E-01  0.0000000E+00  0.2591513E-02
    1       -3.954486
    2       16.820630
    3       18.167832
    4       20.286518
    5       22.420189
    6       22.981116
 
 -0.4761905E-01  0.4761905E-01  0.0000000E+00  0.1295756E-02
    1       -4.191636
    2       18.690691
    3       18.739675
    4       20.521446
    5       21.920947
    6       22.626944
 
  0.9523810E-01  0.9523810E-01  0.0000000E+00  0.6478782E-03
    1       -4.019090
    2       18.280692
    3       18.280836
    4       19.697978
    5       20.194338
    6       24.401020
 
  0.1428571E+00  0.9523810E-01  0.0000000E+00  0.2591513E-02
    1       -3.782155
    2       16.872882
    3       17.715449
    4       19.373320
    5       20.298461
    6       24.355057
 
  0.1904762E+00  0.9523810E-01  0.0000000E+00  0.2591513E-02
    1       -3.416709
    2       14.961801
    3       17.248594
    4       18.911380
    5       20.865917
    6       23.514102
 
  0.2380952E+00  0.9523810E-01  0.0000000E+00  0.2591513E-02
    1       -2.923299
    2       13.029917
    3       16.889579
    4       18.473876
    5       20.927616
    6       23.469135
 
  0.2857143E+00  0.9523810E-01  0.0000000E+00  0.2591513E-02
    1       -2.303210
    2       11.147191
    3       16.637900
    4       18.054342
    5       20.440171
    6       23.949932
 
  0.3333333E+00  0.9523810E-01  0.0000000E+00  0.2591513E-02
    1       -1.557433
    2        9.345656
    3       16.494687
    4       17.627607
    5       19.945580
    6       24.282511
 
  0.3809524E+00  0.9523810E-01  0.0000000E+00  0.2591513E-02
    1       -0.687913
    2        7.638953
    3       16.458433
    4       17.171057
    5       19.620012
    6       23.699478
 
  0.4285714E+00  0.9523810E-01  0.0000000E+00  0.2591513E-02
    1        0.300472
    2        6.037401
    3       16.527893
    4       16.699862
    5       19.516244
    6       23.087380
 
  0.4761905E+00  0.9523810E-01  0.0000000E+00  0.2591513E-02
    1        1.396447
    2        4.556221
    3       16.249009
    4       16.695161
    5       19.595486
    6       22.542378
 
 -0.4761905E+00  0.9523810E-01  0.0000000E+00  0.2591513E-02
    1        2.456531
    2        3.341653
    3       15.857820
    4       16.964891
    5       19.847141
    6       22.139844
 
 -0.4285714E+00  0.9523810E-01  0.0000000E+00  0.2591513E-02
    1        1.777057
    2        4.098211
    3       15.549323
    4       17.324373
    5       20.249566
    6       21.867126
 
 -0.3809524E+00  0.9523810E-01  0.0000000E+00  0.2591513E-02
    1        0.655048
    2        5.528770
    3       15.335632
    4       17.765089
    5       20.785096
    6       21.744512
 
 -0.3333333E+00  0.9523810E-01  0.0000000E+00  0.2591513E-02
    1       -0.371451
    2        7.092564
    3       15.225068
    4       18.257911
    5       21.420141
    6       21.762665
 
 -0.2857143E+00  0.9523810E-01  0.0000000E+00  0.2591513E-02
    1       -1.281265
    2        8.764762
    3       15.220356
    4       18.780355
    5       21.949766
    6       22.158389
 
 -0.2380952E+00  0.9523810E-01  0.0000000E+00  0.2591513E-02
    1       -2.068693
    2       10.535899
    3       15.328065
    4       19.308913
    5       22.305134
    6       22.994564
 
 -0.1904762E+00  0.9523810E-01  0.0000000E+00  0.2591513E-02
    1       -2.730725
    2       12.391574
    3       15.552036
    4       19.811587
    5       22.733125
    6       23.795012
 
 -0.1428571E+00  0.9523810E-01  0.0000000E+00  0.2591513E-02
    1       -3.266445
    2       14.307109
    3       15.886360
    4       20.261277
    5       22.838307
    6       23.671322
 
 -0.9523810E-01  0.9523810E-01  0.0000000E+00  0.1295756E-02
    1       -3.674685
    2       16.138950
    3       16.443036
    4       20.528051
    5       22.420894
    6       23.390753
 
  0.1428571E+00  0.1428571E+00  0.0000000E+00  0.6478782E-03
    1       -3.588515
    2       17.112035
    3       17.112168
    4       18.822441
    5       19.021269
    6       23.059296
 
  0.1904762E+00  0.1428571E+00  0.0000000E+00  0.2591513E-02
    1       -3.266195
    2       15.755234
    3       16.611481
    4       18.339039
    5       19.162203
    6       22.081852
 
  0.2380952E+00  0.1428571E+00  0.0000000E+00  0.2591513E-02
    1       -2.815939
    2       13.888924
    3       16.217450
    4       17.791421
    5       19.488930
    6       21.773926
 
  0.2857143E+00  0.1428571E+00  0.0000000E+00  0.2591513E-02
    1       -2.238711
    2       12.011636
    3       15.932024
    4       17.214074
    5       19.236478
    6       22.425097
 
  0.3333333E+00  0.1428571E+00  0.0000000E+00  0.2591513E-02
    1       -1.535357
    2       10.192250
    3       15.757427
    4       16.591859
    5       18.882944
    6       23.508074
 
  0.3809524E+00  0.1428571E+00  0.0000000E+00  0.2591513E-02
    1       -0.707682
    2        8.459543
    3       15.687751
    4       15.946859
    5       18.664522
    6       24.567775
 
  0.4285714E+00  0.1428571E+00  0.0000000E+00  0.2591513E-02
    1        0.239795
    2        6.826108
    3       15.324639
    4       15.732022
    5       18.619343
    6       24.508887
 
  0.4761905E+00  0.1428571E+00  0.0000000E+00  0.2591513E-02
    1        1.301827
    2        5.305615
    3       14.765444
    4       15.884816
    5       18.739113
    6       23.955994
 
 -0.4761905E+00  0.1428571E+00  0.0000000E+00  0.2591513E-02
    1        2.431500
    2        3.945447
    3       14.290102
    4       16.143430
    5       19.003509
    6       23.504509
 
 -0.4285714E+00  0.1428571E+00  0.0000000E+00  0.2591513E-02
    1        2.430893
    2        3.945303
    3       13.911861
    4       16.502891
    5       19.395003
    6       23.138681
 
 -0.3809524E+00  0.1428571E+00  0.0000000E+00  0.2591513E-02
    1        1.301237
    2        5.305112
    3       13.639962
    4       16.960506
    5       19.910170
    6       22.913748
 
 -0.3333333E+00  0.1428571E+00  0.0000000E+00  0.2591513E-02
    1        0.239947
    2        6.825036
    3       13.478986
    4       17.506308
    5       20.537913
    6       22.814765
 
 -0.2857143E+00  0.1428571E+00  0.0000000E+00  0.2591513E-02
    1       -0.708399
    2        8.455939
    3       13.431335
    4       18.125600
    5       21.272452
    6       22.849687
 
 -0.2380952E+00  0.1428571E+00  0.0000000E+00  0.2591513E-02
    1       -1.535766
    2       10.184753
    3       13.501134
    4       18.797683
    5       22.117194
    6       23.036343
 
 -0.1904762E+00  0.1428571E+00  0.0000000E+00  0.2591513E-02
    1       -2.239073
    2       11.986416
    3       13.700183
    4       19.473031
    5       23.016768
    6       23.316933
 
 -0.1428571E+00  0.1428571E+00  0.0000000E+00  0.1295756E-02
    1       -2.816289
    2       13.667348
    3       14.199776
    4       20.045089
    5       23.249459
    6       23.882265
 
  0.1904762E+00  0.1904762E+00  0.0000000E+00  0.6478782E-03
    1       -2.987170
    2       16.074722
    3       16.074846
    4       17.618333
    5       17.914623
    6       20.931115
 
  0.2380952E+00  0.1904762E+00  0.0000000E+00  0.2591513E-02
    1       -2.580214
    2       14.758384
    3       15.644580
    4       16.960020
    5       18.014560
    6       20.292431
 
  0.2857143E+00  0.1904762E+00  0.0000000E+00  0.2591513E-02
    1       -2.045695
    2       12.952043
    3       15.324294
    4       16.204335
    5       18.145010
    6       20.586408
 
  0.3333333E+00  0.1904762E+00  0.0000000E+00  0.2591513E-02
    1       -1.385708
    2       11.137639
    3       15.109654
    4       15.406310
    5       17.965203
    6       21.604913
 
  0.3809524E+00  0.1904762E+00  0.0000000E+00  0.2591513E-02
    1       -0.600846
    2        9.388245
    3       14.623269
    4       15.011200
    5       17.832328
    6       22.907410
 
  0.4285714E+00  0.1904762E+00  0.0000000E+00  0.2591513E-02
    1        0.305740
    2        7.729520
    3       13.900481
    4       15.023347
    5       17.818261
    6       24.270789
 
  0.4761905E+00  0.1904762E+00  0.0000000E+00  0.2591513E-02
    1        1.329215
    2        6.175218
    3       13.260150
    4       15.145824
    5       17.930307
    6       25.522223
 
 -0.4761905E+00  0.1904762E+00  0.0000000E+00  0.2591513E-02
    1        2.449245
    2        4.750026
    3       12.719023
    4       15.377657
    5       18.176799
    6       24.999724
 
 -0.4285714E+00  0.1904762E+00  0.0000000E+00  0.2591513E-02
    1        3.132220
    2        3.989698
    3       12.284250
    4       15.716568
    5       18.548308
    6       24.611726
 
 -0.3809524E+00  0.1904762E+00  0.0000000E+00  0.2591513E-02
    1        2.067611
    2        5.206013
    3       11.962267
    4       16.159652
    5       19.041538
    6       24.334141
 
 -0.3333333E+00  0.1904762E+00  0.0000000E+00  0.2591513E-02
    1        0.974403
    2        6.676739
    3       11.757000
    4       16.700338
    5       19.647826
    6       24.149240
 
 -0.2857143E+00  0.1904762E+00  0.0000000E+00  0.2591513E-02
    1       -0.010883
    2        8.260938
    3       11.673008
    4       17.332260
    5       20.368922
    6       24.107506
 
 -0.2380952E+00  0.1904762E+00  0.0000000E+00  0.2591513E-02
    1       -0.876943
    2        9.925578
    3       11.726600
    4       18.036690
    5       21.184086
    6       24.190129
 
 -0.1904762E+00  0.1904762E+00  0.0000000E+00  0.1295756E-02
    1       -1.620574
    2       11.449534
    3       12.126945
    4       18.780271
    5       22.074727
    6       24.405948
 
  0.2380952E+00  0.2380952E+00  0.0000000E+00  0.6478782E-03
    1       -2.216619
    2       15.177891
    3       15.178008
    4       15.959649
    5       16.932503
    6       19.328064
 
  0.2857143E+00  0.2380952E+00  0.0000000E+00  0.2591513E-02
    1       -1.725149
    2       13.889968
    3       14.817095
    4       15.111495
    5       17.033122
    6       19.084394
 
  0.3333333E+00  0.2380952E+00  0.0000000E+00  0.2591513E-02
    1       -1.108429
    2       12.149723
    3       14.198432
    4       14.570927
    5       17.157007
    6       19.737692
 
  0.3809524E+00  0.2380952E+00  0.0000000E+00  0.2591513E-02
    1       -0.366645
    2       10.410715
    3       13.316705
    4       14.436523
    5       17.109873
    6       20.944453
 
  0.4285714E+00  0.2380952E+00  0.0000000E+00  0.2591513E-02
    1        0.497745
    2        8.736990
    3       12.512204
    4       14.413759
    5       17.107599
    6       22.369780
 
  0.4761905E+00  0.2380952E+00  0.0000000E+00  0.2591513E-02
    1        1.479997
    2        7.157248
    3       11.805980
    4       14.502602
    5       17.212971
    6       23.910611
 
 -0.4761905E+00  0.2380952E+00  0.0000000E+00  0.2591513E-02
    1        2.570352
    2        5.690222
    3       11.206830
    4       14.702060
    5       17.432083
    6       25.445087
 
 -0.4285714E+00  0.2380952E+00  0.0000000E+00  0.2591513E-02
    1        3.637078
    2        4.470892
    3       10.721377
    4       15.011129
    5       17.775864
    6       26.184553
 
 -0.3809524E+00  0.2380952E+00  0.0000000E+00  0.2591513E-02
    1        2.948597
    2        5.232074
    3       10.353675
    4       15.427862
    5       18.240577
    6       25.863548
 
 -0.3333333E+00  0.2380952E+00  0.0000000E+00  0.2591513E-02
    1        1.830139
    2        6.644758
    3       10.110456
    4       15.948714
    5       18.822416
    6       25.648025
 
 -0.2857143E+00  0.2380952E+00  0.0000000E+00  0.2591513E-02
    1        0.809358
    2        8.158462
    3       10.010642
    4       16.567499
    5       19.513424
    6       25.532758
 
 -0.2380952E+00  0.2380952E+00  0.0000000E+00  0.1295756E-02
    1       -0.094794
    2        9.523224
    3       10.282595
    4       17.270454
    5       20.308083
    6       25.341392
 
  0.2857143E+00  0.2857143E+00  0.0000000E+00  0.6478782E-03
    1       -1.277940
    2       13.940169
    3       14.423166
    4       14.423309
    5       16.076365
    6       18.262851
 
  0.3333333E+00  0.2857143E+00  0.0000000E+00  0.2591513E-02
    1       -0.704775
    2       12.803439
    3       13.387589
    4       14.140206
    5       16.259697
    6       18.244611
 
  0.3809524E+00  0.2857143E+00  0.0000000E+00  0.2591513E-02
    1       -0.007079
    2       11.402898
    3       12.173413
    4       13.969127
    5       16.444608
    6       19.096368
 
  0.4285714E+00  0.2857143E+00  0.0000000E+00  0.2591513E-02
    1        0.814666
    2        9.806287
    3       11.236516
    4       13.910463
    5       16.492400
    6       20.430011
 
  0.4761905E+00  0.2857143E+00  0.0000000E+00  0.2591513E-02
    1        1.754722
    2        8.229893
    3       10.450680
    4       13.963388
    5       16.589693
    6       21.959880
 
 -0.4761905E+00  0.2857143E+00  0.0000000E+00  0.2591513E-02
    1        2.807411
    2        6.740533
    3        9.790844
    4       14.128569
    5       16.786160
    6       23.616961
 
 -0.4285714E+00  0.2857143E+00  0.0000000E+00  0.2591513E-02
    1        3.933931
    2        5.391440
    3        9.254849
    4       14.404755
    5       17.103466
    6       25.326578
 
 -0.3809524E+00  0.2857143E+00  0.0000000E+00  0.2591513E-02
    1        3.931780
    2        5.387196
    3        8.845696
    4       14.790256
    5       17.539271
    6       26.966177
 
 -0.3333333E+00  0.2857143E+00  0.0000000E+00  0.2591513E-02
    1        2.803284
    2        6.705466
    3        8.584567
    4       15.282896
    5       18.087079
    6       27.201569
 
 -0.2857143E+00  0.2857143E+00  0.0000000E+00  0.1295756E-02
    1        1.749216
    2        7.907276
    3        8.708198
    4       15.877657
    5       18.747032
    6       26.757138
 
  0.3333333E+00  0.3333333E+00  0.0000000E+00  0.6478782E-03
    1       -0.175408
    2       11.811595
    3       13.820284
    4       13.820422
    5       15.401560
    6       17.519473
 
  0.3809524E+00  0.3333333E+00  0.0000000E+00  0.2591513E-02
    1        0.478426
    2       10.781821
    3       12.737338
    4       13.612255
    5       15.669768
    6       17.644816
 
  0.4285714E+00  0.3333333E+00  0.0000000E+00  0.2591513E-02
    1        1.256135
    2        9.827559
    3       11.177913
    4       13.516782
    5       15.925716
    6       18.623424
 
  0.4761905E+00  0.3333333E+00  0.0000000E+00  0.2591513E-02
    1        2.152582
    2        8.900731
    3        9.696797
    4       13.533530
    5       16.063075
    6       20.058419
 
 -0.4761905E+00  0.3333333E+00  0.0000000E+00  0.2591513E-02
    1        3.163250
    2        7.763816
    3        8.614793
    4       13.662480
    5       16.250175
    6       21.680925
 
 -0.4285714E+00  0.3333333E+00  0.0000000E+00  0.2591513E-02
    1        4.270155
    2        6.450165
    3        7.946241
    4       13.903481
    5       16.535512
    6       23.422071
 
 -0.3809524E+00  0.3333333E+00  0.0000000E+00  0.2591513E-02
    1        4.966585
    2        5.671707
    3        7.494224
    4       14.255643
    5       16.939466
    6       25.247986
 
 -0.3333333E+00  0.3333333E+00  0.0000000E+00  0.1295756E-02
    1        3.883817
    2        6.609735
    3        7.447140
    4       14.716330
    5       17.456507
    6       26.999462
 
  0.3809524E+00  0.3809524E+00  0.0000000E+00  0.6478782E-03
    1        1.087983
    2        9.721778
    3       13.367143
    4       13.367277
    5       14.892090
    6       16.997851
 
  0.4285714E+00  0.3809524E+00  0.0000000E+00  0.2591513E-02
    1        1.821227
    2        8.748726
    3       12.334494
    4       13.234761
    5       15.250378
    6       17.234619
 
  0.4761905E+00  0.3809524E+00  0.0000000E+00  0.2591513E-02
    1        2.672162
    2        7.881409
    3       10.818228
    4       13.214579
    5       15.585149
    6       18.312322
 
 -0.4761905E+00  0.3809524E+00  0.0000000E+00  0.2591513E-02
    1        3.635539
    2        7.124101
    3        9.317243
    4       13.307186
    5       15.805751
    6       19.830671
 
 -0.4285714E+00  0.3809524E+00  0.0000000E+00  0.2591513E-02
    1        4.691059
    2        6.472038
    3        7.929875
    4       13.511929
    5       16.083414
    6       21.545210
 
 -0.3809524E+00  0.3809524E+00  0.0000000E+00  0.1295756E-02
    1        5.633519
    2        5.903433
    3        6.904828
    4       13.828318
    5       16.452234
    6       23.361356
 
  0.4285714E+00  0.4285714E+00  0.0000000E+00  0.6478782E-03
    1        2.507220
    2        7.735478
    3       13.064792
    4       13.064924
    5       14.553253
    6       16.664639
 
  0.4761905E+00  0.4285714E+00  0.0000000E+00  0.2591513E-02
    1        3.308903
    2        6.833365
    3       12.095561
    4       13.007552
    5       14.999186
    6       16.989481
 
 -0.4761905E+00  0.4285714E+00  0.0000000E+00  0.2591513E-02
    1        4.209486
    2        6.064791
    3       10.649885
    4       13.063245
    5       15.418074
    6       18.159771
 
 -0.4285714E+00  0.4285714E+00  0.0000000E+00  0.1295756E-02
    1        4.982011
    2        5.648736
    3        9.222096
    4       13.231670
    5       15.724191
    6       19.758969
 
  0.4761905E+00  0.4761905E+00  0.0000000E+00  0.6478782E-03
    1        4.046713
    2        5.908721
    3       12.913168
    4       12.913299
    5       14.382257
    6       16.501183
 
 -0.4761905E+00  0.4761905E+00  0.0000000E+00  0.1295756E-02
    1        4.656331
    2        5.343096
    3       12.016273
    4       12.931753
    5       14.915253
    6       16.911654
 
  0.1428571E+00  0.9523810E-01  0.4761905E-01  0.2591513E-02
    1       -3.932973
    2       17.427274
    3       17.573061
    4       20.200628
    5       21.146590
    6       23.973940
 
  0.1904762E+00  0.9523810E-01  0.4761905E-01  0.5183026E-02
    1       -3.610153
    2       15.578333
    3       17.015063
    4       19.938691
    5       21.608287
    6       24.245140
 
  0.2380952E+00  0.9523810E-01  0.4761905E-01  0.5183026E-02
    1       -3.159173
    2       13.623722
    3       16.616291
    4       19.514772
    5       21.914049
    6       23.926614
 
  0.2857143E+00  0.9523810E-01  0.4761905E-01  0.5183026E-02
    1       -2.581043
    2       11.717054
    3       16.324903
    4       19.086668
    5       21.602496
    6       23.809269
 
  0.3333333E+00  0.9523810E-01  0.4761905E-01  0.5183026E-02
    1       -1.876848
    2        9.884338
    3       16.141151
    4       18.658064
    5       21.102161
    6       23.518043
 
  0.3809524E+00  0.9523810E-01  0.4761905E-01  0.5183026E-02
    1       -1.048159
    2        8.143566
    3       16.059932
    4       18.210605
    5       20.718015
    6       22.894309
 
  0.4285714E+00  0.9523810E-01  0.4761905E-01  0.5183026E-02
    1       -0.098295
    2        6.505113
    3       16.085171
    4       17.754066
    5       20.519403
    6       22.260406
 
  0.4761905E+00  0.9523810E-01  0.4761905E-01  0.5183026E-02
    1        0.964637
    2        4.980317
    3       16.198889
    4       17.327104
    5       20.479657
    6       21.747005
 
 -0.4761905E+00  0.9523810E-01  0.4761905E-01  0.5183026E-02
    1        2.094498
    2        3.618828
    3       16.351947
    4       17.009151
    5       20.532630
    6       21.415760
 
  0.1904762E+00  0.1428571E+00  0.4761905E-01  0.2591513E-02
    1       -3.502561
    2       16.230476
    3       16.444601
    4       19.365772
    5       20.038342
    6       23.278447
 
  0.2380952E+00  0.1428571E+00  0.4761905E-01  0.5183026E-02
    1       -3.094666
    2       14.434727
    3       15.922620
    4       18.964903
    5       20.441946
    6       22.638879
 
  0.2857143E+00  0.1428571E+00  0.4761905E-01  0.5183026E-02
    1       -2.559360
    2       12.536535
    3       15.591947
    4       18.409672
    5       20.410178
    6       22.936613
 
  0.3333333E+00  0.1428571E+00  0.4761905E-01  0.5183026E-02
    1       -1.897599
    2       10.688350
    3       15.365669
    4       17.799986
    5       20.068999
    6       23.742767
 
  0.3809524E+00  0.1428571E+00  0.4761905E-01  0.5183026E-02
    1       -1.110790
    2        8.921863
    3       15.250302
    4       17.165388
    5       19.811153
    6       23.994799
 
  0.4285714E+00  0.1428571E+00  0.4761905E-01  0.5183026E-02
    1       -0.202160
    2        7.252325
    3       15.230361
    4       16.560915
    5       19.713462
    6       23.482760
 
  0.4761905E+00  0.1428571E+00  0.4761905E-01  0.5183026E-02
    1        0.823818
    2        5.691010
    3       15.262169
    4       16.070270
    5       19.765694
    6       22.930262
 
 -0.4761905E+00  0.1428571E+00  0.4761905E-01  0.5183026E-02
    1        1.945650
    2        4.261713
    3       15.161294
    4       15.897219
    5       19.954995
    6       22.453880
 
 -0.4285714E+00  0.1428571E+00  0.4761905E-01  0.5183026E-02
    1        2.625883
    2        3.504195
    3       14.873463
    4       16.111061
    5       20.247464
    6       22.103868
 
 -0.3809524E+00  0.1428571E+00  0.4761905E-01  0.5183026E-02
    1        1.564413
    2        4.719318
    3       14.605625
    4       16.508350
    5       20.616301
    6       21.901584
 
 -0.3333333E+00  0.1428571E+00  0.4761905E-01  0.5183026E-02
    1        0.469419
    2        6.198307
    3       14.424724
    4       17.017726
    5       20.978299
    6       21.950667
 
 -0.2857143E+00  0.1428571E+00  0.4761905E-01  0.5183026E-02
    1       -0.518840
    2        7.796416
    3       14.346317
    4       17.610794
    5       21.236734
    6       22.327337
 
 -0.2380952E+00  0.1428571E+00  0.4761905E-01  0.5183026E-02
    1       -1.387022
    2        9.499291
    3       14.379326
    4       18.262110
    5       21.473570
    6       22.943716
 
 -0.1904762E+00  0.1428571E+00  0.4761905E-01  0.5183026E-02
    1       -2.132177
    2       11.291961
    3       14.525011
    4       18.929067
    5       21.773722
    6       23.506264
 
 -0.1428571E+00  0.1428571E+00  0.4761905E-01  0.5183026E-02
    1       -2.752019
    2       13.152527
    3       14.791416
    4       19.557193
    5       22.004224
    6       23.487727
 
 -0.9523810E-01  0.1428571E+00  0.4761905E-01  0.2591513E-02
    1       -3.244936
    2       14.907039
    3       15.320760
    4       20.013306
    5       21.741826
    6       23.774559
 
  0.2380952E+00  0.1904762E+00  0.4761905E-01  0.2591513E-02
    1       -2.901526
    2       15.159546
    3       15.412373
    4       18.081801
    5       18.974559
    6       21.267024
 
  0.2857143E+00  0.1904762E+00  0.4761905E-01  0.5183026E-02
    1       -2.409358
    2       13.427449
    3       14.938991
    4       17.441573
    5       19.250138
    6       21.196745
 
  0.3333333E+00  0.1904762E+00  0.4761905E-01  0.5183026E-02
    1       -1.790269
    2       11.589414
    3       14.672204
    4       16.670924
    5       19.149308
    6       22.031858
 
  0.3809524E+00  0.1904762E+00  0.4761905E-01  0.5183026E-02
    1       -1.046465
    2        9.808897
    3       14.504471
    4       15.907394
    5       18.985605
    6       23.206664
 
  0.4285714E+00  0.1904762E+00  0.4761905E-01  0.5183026E-02
    1       -0.179341
    2        8.113729
    3       14.395710
    4       15.245904
    5       18.925919
    6       24.272660
 
  0.4761905E+00  0.1904762E+00  0.4761905E-01  0.5183026E-02
    1        0.806746
    2        6.520248
    3       14.163189
    4       14.900515
    5       18.992936
    6       24.272639
 
 -0.4761905E+00  0.1904762E+00  0.4761905E-01  0.5183026E-02
    1        1.900952
    2        5.044921
    3       13.724383
    4       14.969541