 vasp.5.3.5 31Mar14 (build Feb  5 2015 19:39:53) complex                        
  
 executed on              HPCUofA date 2017.11.13  12:31:51
 running on    1 total cores
 distrk:  each k-point on    1 cores,    1 groups
 distr:  one band on NCORES_PER_BAND=   1 cores,    1 groups


--------------------------------------------------------------------------------------------------------


 INCAR:
 POTCAR:   PAW Si 02Apr1999                       
 POTCAR:   PAW Si 02Apr1999                       
   VRHFIN =Si: s2p2                                                             
   LEXCH  = CA                                                                  
   EATOM  =   103.4338 eV,    7.6022 Ry                                         
                                                                                
   TITEL  = PAW Si 02Apr1999                                                    
   LULTRA =        F    use ultrasoft PP ?                                      
   IUNSCR =        1    unscreen: 0-lin 1-nonlin 2-no                           
   RPACOR =    1.500    partial core radius                                     
   POMASS =   28.085; ZVAL   =    4.000    mass and valenz                      
   RCORE  =    1.900    outmost cutoff radius                                   
   RWIGS  =    2.480; RWIGS  =    1.312    wigner-seitz radius (au A)           
   ENMAX  =  245.704; ENMIN  =  184.278 eV                                      
   ICORE  =        2    local potential                                         
   LCOR   =        T    correct aug charges                                     
   LPAW   =        T    paw PP                                                  
   EAUG   =  322.069                                                            
   DEXC   =    -.006                                                            
   RMAX   =    2.941    core radius for proj-oper                               
   RAUG   =    1.300    factor for augmentation sphere                          
   RDEP   =    1.993    core radius for depl-charge                             
   QCUT   =   -4.250; QGAM   =    8.499    optimization parameters              
                                                                                
   Description                                                                  
     l     E      TYP  RCUT    TYP  RCUT                                        
     0   .000     23  1.900                                                     
     0   .000     23  1.900                                                     
     1   .000     23  1.900                                                     
     1   .000     23  1.900                                                     
     2   .000      7  1.900                                                     
  local pseudopotential read in
  partial core-charges read in
  atomic valenz-charges read in
  non local Contribution for L=           0  read in
    real space projection operators read in
  non local Contribution for L=           0  read in
    real space projection operators read in
  non local Contribution for L=           1  read in
    real space projection operators read in
  non local Contribution for L=           1  read in
    real space projection operators read in
    PAW grid and wavefunctions read in
 
   number of l-projection  operators is LMAX  =           4
   number of lm-projection operators is LMMAX =           8
 
 PAW Si 02Apr1999                       :
 energy of atom  1       EATOM= -103.4338
 kinetic energy error for atom=    0.0062 (will be added to EATOM!!)
 
 
 POSCAR: fcc Si:                                 
  positions in cartesian coordinates
  No initial velocities read in
 exchange correlation table for  LEXCH =        2
   RHO(1)=    0.500       N(1)  =     2000
   RHO(2)=  100.500       N(2)  =     4000
 


--------------------------------------------------------------------------------------------------------


 ion  position               nearest neighbor table
   1  0.000  0.000  0.000-
 
  LATTYP: Found a face centered cubic cell.
 ALAT       =     3.9000000000
  
  Lattice vectors:
  
 A1 = (   1.9500000000,   1.9500000000,   0.0000000000)
 A2 = (   0.0000000000,   1.9500000000,   1.9500000000)
 A3 = (   1.9500000000,   0.0000000000,   1.9500000000)


Analysis of symmetry for initial positions (statically):
=====================================================================
 Subroutine PRICEL returns:
 Original cell was already a primitive cell.
 

 Routine SETGRP: Setting up the symmetry group for a 
 face centered cubic supercell.


 Subroutine GETGRP returns: Found 48 space group operations
 (whereof 48 operations were pure point group operations)
 out of a pool of 48 trial point group operations.


The static configuration has the point symmetry O_h .


Analysis of symmetry for dynamics (positions and initial velocities):
=====================================================================
 Subroutine PRICEL returns:
 Original cell was already a primitive cell.
 

 Routine SETGRP: Setting up the symmetry group for a 
 face centered cubic supercell.


 Subroutine GETGRP returns: Found 48 space group operations
 (whereof 48 operations were pure point group operations)
 out of a pool of 48 trial point group operations.


The dynamic configuration has the point symmetry O_h .
 
 
 KPOINTS: k-points                                

Automatic generation of k-mesh.
Space group operators:
 irot       det(A)        alpha          n_x          n_y          n_z        tau_x        tau_y        tau_z
    1     1.000000     0.000000     1.000000     0.000000     0.000000     0.000000     0.000000     0.000000
    2    -1.000000     0.000000     1.000000     0.000000     0.000000     0.000000     0.000000     0.000000
    3     1.000000   120.000000    -0.577350    -0.577350    -0.577350     0.000000     0.000000     0.000000
    4    -1.000000   120.000000    -0.577350    -0.577350    -0.577350     0.000000     0.000000     0.000000
    5     1.000000   120.000000     0.577350     0.577350     0.577350     0.000000     0.000000     0.000000
    6    -1.000000   120.000000     0.577350     0.577350     0.577350     0.000000     0.000000     0.000000
    7     1.000000    90.000000     0.000000    -1.000000     0.000000     0.000000     0.000000     0.000000
    8    -1.000000    90.000000     0.000000    -1.000000     0.000000     0.000000     0.000000     0.000000
    9     1.000000   180.000000     0.707107     0.707107     0.000000     0.000000     0.000000     0.000000
   10    -1.000000   180.000000     0.707107     0.707107     0.000000     0.000000     0.000000     0.000000
   11     1.000000    90.000000     1.000000     0.000000     0.000000     0.000000     0.000000     0.000000
   12    -1.000000    90.000000     1.000000     0.000000     0.000000     0.000000     0.000000     0.000000
   13     1.000000   180.000000     0.000000     1.000000     0.000000     0.000000     0.000000     0.000000
   14    -1.000000   180.000000     0.000000     1.000000     0.000000     0.000000     0.000000     0.000000
   15     1.000000   120.000000     0.577350     0.577350    -0.577350     0.000000     0.000000     0.000000
   16    -1.000000   120.000000     0.577350     0.577350    -0.577350     0.000000     0.000000     0.000000
   17     1.000000   120.000000     0.577350    -0.577350    -0.577350     0.000000     0.000000     0.000000
   18    -1.000000   120.000000     0.577350    -0.577350    -0.577350     0.000000     0.000000     0.000000
   19     1.000000    90.000000     0.000000     1.000000     0.000000     0.000000     0.000000     0.000000
   20    -1.000000    90.000000     0.000000     1.000000     0.000000     0.000000     0.000000     0.000000
   21     1.000000    90.000000     0.000000     0.000000    -1.000000     0.000000     0.000000     0.000000
   22    -1.000000    90.000000     0.000000     0.000000    -1.000000     0.000000     0.000000     0.000000
   23     1.000000   180.000000     0.000000     0.707107     0.707107     0.000000     0.000000     0.000000
   24    -1.000000   180.000000     0.000000     0.707107     0.707107     0.000000     0.000000     0.000000
   25     1.000000   120.000000    -0.577350     0.577350     0.577350     0.000000     0.000000     0.000000
   26    -1.000000   120.000000    -0.577350     0.577350     0.577350     0.000000     0.000000     0.000000
   27     1.000000   120.000000    -0.577350     0.577350    -0.577350     0.000000     0.000000     0.000000
   28    -1.000000   120.000000    -0.577350     0.577350    -0.577350     0.000000     0.000000     0.000000
   29     1.000000   179.999999     0.000000     0.000000     1.000000     0.000000     0.000000     0.000000
   30    -1.000000   179.999999     0.000000     0.000000     1.000000     0.000000     0.000000     0.000000
   31     1.000000    90.000000    -1.000000     0.000000     0.000000     0.000000     0.000000     0.000000
   32    -1.000000    90.000000    -1.000000     0.000000     0.000000     0.000000     0.000000     0.000000
   33     1.000000   180.000000     0.707107     0.000000     0.707107     0.000000     0.000000     0.000000
   34    -1.000000   180.000000     0.707107     0.000000     0.707107     0.000000     0.000000     0.000000
   35     1.000000    90.000000     0.000000     0.000000     1.000000     0.000000     0.000000     0.000000
   36    -1.000000    90.000000     0.000000     0.000000     1.000000     0.000000     0.000000     0.000000
   37     1.000000   120.000000    -0.577350    -0.577350     0.577350     0.000000     0.000000     0.000000
   38    -1.000000   120.000000    -0.577350    -0.577350     0.577350     0.000000     0.000000     0.000000
   39     1.000000   180.000000     1.000000     0.000000     0.000000     0.000000     0.000000     0.000000
   40    -1.000000   180.000000     1.000000     0.000000     0.000000     0.000000     0.000000     0.000000
   41     1.000000   120.000000     0.577350    -0.577350     0.577350     0.000000     0.000000     0.000000
   42    -1.000000   120.000000     0.577350    -0.577350     0.577350     0.000000     0.000000     0.000000
   43     1.000000   180.000000     0.707107    -0.707107     0.000000     0.000000     0.000000     0.000000
   44    -1.000000   180.000000     0.707107    -0.707107     0.000000     0.000000     0.000000     0.000000
   45     1.000000   180.000000     0.707107     0.000000    -0.707107     0.000000     0.000000     0.000000
   46    -1.000000   180.000000     0.707107     0.000000    -0.707107     0.000000     0.000000     0.000000
   47     1.000000   180.000000     0.000000    -0.707107     0.707107     0.000000     0.000000     0.000000
   48    -1.000000   180.000000     0.000000    -0.707107     0.707107     0.000000     0.000000     0.000000
 
 Subroutine IBZKPT returns following result:
 ===========================================
 
 Found    286 irreducible k-points:
 
 Following reciprocal coordinates:
            Coordinates               Weight
  0.000000  0.000000  0.000000      1.000000
  0.047619  0.000000  0.000000      8.000000
  0.095238  0.000000  0.000000      8.000000
  0.142857  0.000000  0.000000      8.000000
  0.190476  0.000000  0.000000      8.000000
  0.238095  0.000000  0.000000      8.000000
  0.285714  0.000000  0.000000      8.000000
  0.333333  0.000000  0.000000      8.000000
  0.380952  0.000000  0.000000      8.000000
  0.428571  0.000000  0.000000      8.000000
  0.476190  0.000000  0.000000      8.000000
  0.047619  0.047619  0.000000      6.000000
  0.095238  0.047619  0.000000     24.000000
  0.142857  0.047619  0.000000     24.000000
  0.190476  0.047619  0.000000     24.000000
  0.238095  0.047619  0.000000     24.000000
  0.285714  0.047619  0.000000     24.000000
  0.333333  0.047619  0.000000     24.000000
  0.380952  0.047619  0.000000     24.000000
  0.428571  0.047619  0.000000     24.000000
  0.476190  0.047619  0.000000     24.000000
 -0.476190  0.047619  0.000000     24.000000
 -0.428571  0.047619  0.000000     24.000000
 -0.380952  0.047619  0.000000     24.000000
 -0.333333  0.047619  0.000000     24.000000
 -0.285714  0.047619  0.000000     24.000000
 -0.238095  0.047619  0.000000     24.000000
 -0.190476  0.047619  0.000000     24.000000
 -0.142857  0.047619  0.000000     24.000000
 -0.095238  0.047619  0.000000     24.000000
 -0.047619  0.047619  0.000000     12.000000
  0.095238  0.095238  0.000000      6.000000
  0.142857  0.095238  0.000000     24.000000
  0.190476  0.095238  0.000000     24.000000
  0.238095  0.095238  0.000000     24.000000
  0.285714  0.095238  0.000000     24.000000
  0.333333  0.095238  0.000000     24.000000
  0.380952  0.095238  0.000000     24.000000
  0.428571  0.095238  0.000000     24.000000
  0.476190  0.095238  0.000000     24.000000
 -0.476190  0.095238  0.000000     24.000000
 -0.428571  0.095238  0.000000     24.000000
 -0.380952  0.095238  0.000000     24.000000
 -0.333333  0.095238  0.000000     24.000000
 -0.285714  0.095238  0.000000     24.000000
 -0.238095  0.095238  0.000000     24.000000
 -0.190476  0.095238  0.000000     24.000000
 -0.142857  0.095238  0.000000     24.000000
 -0.095238  0.095238  0.000000     12.000000
  0.142857  0.142857  0.000000      6.000000
  0.190476  0.142857  0.000000     24.000000
  0.238095  0.142857  0.000000     24.000000
  0.285714  0.142857  0.000000     24.000000
  0.333333  0.142857  0.000000     24.000000
  0.380952  0.142857  0.000000     24.000000
  0.428571  0.142857  0.000000     24.000000
  0.476190  0.142857  0.000000     24.000000
 -0.476190  0.142857  0.000000     24.000000
 -0.428571  0.142857  0.000000     24.000000
 -0.380952  0.142857  0.000000     24.000000
 -0.333333  0.142857  0.000000     24.000000
 -0.285714  0.142857  0.000000     24.000000
 -0.238095  0.142857  0.000000     24.000000
 -0.190476  0.142857  0.000000     24.000000
 -0.142857  0.142857  0.000000     12.000000
  0.190476  0.190476  0.000000      6.000000
  0.238095  0.190476  0.000000     24.000000
  0.285714  0.190476  0.000000     24.000000
  0.333333  0.190476  0.000000     24.000000
  0.380952  0.190476  0.000000     24.000000
  0.428571  0.190476  0.000000     24.000000
  0.476190  0.190476  0.000000     24.000000
 -0.476190  0.190476  0.000000     24.000000
 -0.428571  0.190476  0.000000     24.000000
 -0.380952  0.190476  0.000000     24.000000
 -0.333333  0.190476  0.000000     24.000000
 -0.285714  0.190476  0.000000     24.000000
 -0.238095  0.190476  0.000000     24.000000
 -0.190476  0.190476  0.000000     12.000000
  0.238095  0.238095  0.000000      6.000000
  0.285714  0.238095  0.000000     24.000000
  0.333333  0.238095  0.000000     24.000000
  0.380952  0.238095  0.000000     24.000000
  0.428571  0.238095  0.000000     24.000000
  0.476190  0.238095  0.000000     24.000000
 -0.476190  0.238095  0.000000     24.000000
 -0.428571  0.238095  0.000000     24.000000
 -0.380952  0.238095  0.000000     24.000000
 -0.333333  0.238095  0.000000     24.000000
 -0.285714  0.238095  0.000000     24.000000
 -0.238095  0.238095  0.000000     12.000000
  0.285714  0.285714  0.000000      6.000000
  0.333333  0.285714  0.000000     24.000000
  0.380952  0.285714  0.000000     24.000000
  0.428571  0.285714  0.000000     24.000000
  0.476190  0.285714  0.000000     24.000000
 -0.476190  0.285714  0.000000     24.000000
 -0.428571  0.285714  0.000000     24.000000
 -0.380952  0.285714  0.000000     24.000000
 -0.333333  0.285714  0.000000     24.000000
 -0.285714  0.285714  0.000000     12.000000
  0.333333  0.333333  0.000000      6.000000
  0.380952  0.333333  0.000000     24.000000
  0.428571  0.333333  0.000000     24.000000
  0.476190  0.333333  0.000000     24.000000
 -0.476190  0.333333  0.000000     24.000000
 -0.428571  0.333333  0.000000     24.000000
 -0.380952  0.333333  0.000000     24.000000
 -0.333333  0.333333  0.000000     12.000000
  0.380952  0.380952  0.000000      6.000000
  0.428571  0.380952  0.000000     24.000000
  0.476190  0.380952  0.000000     24.000000
 -0.476190  0.380952  0.000000     24.000000
 -0.428571  0.380952  0.000000     24.000000
 -0.380952  0.380952  0.000000     12.000000
  0.428571  0.428571  0.000000      6.000000
  0.476190  0.428571  0.000000     24.000000
 -0.476190  0.428571  0.000000     24.000000
 -0.428571  0.428571  0.000000     12.000000
  0.476190  0.476190  0.000000      6.000000
 -0.476190  0.476190  0.000000     12.000000
  0.142857  0.095238  0.047619     24.000000
  0.190476  0.095238  0.047619     48.000000
  0.238095  0.095238  0.047619     48.000000
  0.285714  0.095238  0.047619     48.000000
  0.333333  0.095238  0.047619     48.000000
  0.380952  0.095238  0.047619     48.000000
  0.428571  0.095238  0.047619     48.000000
  0.476190  0.095238  0.047619     48.000000
 -0.476190  0.095238  0.047619     48.000000
  0.190476  0.142857  0.047619     24.000000
  0.238095  0.142857  0.047619     48.000000
  0.285714  0.142857  0.047619     48.000000
  0.333333  0.142857  0.047619     48.000000
  0.380952  0.142857  0.047619     48.000000
  0.428571  0.142857  0.047619     48.000000
  0.476190  0.142857  0.047619     48.000000
 -0.476190  0.142857  0.047619     48.000000
 -0.428571  0.142857  0.047619     48.000000
 -0.380952  0.142857  0.047619     48.000000
 -0.333333  0.142857  0.047619     48.000000
 -0.285714  0.142857  0.047619     48.000000
 -0.238095  0.142857  0.047619     48.000000
 -0.190476  0.142857  0.047619     48.000000
 -0.142857  0.142857  0.047619     48.000000
 -0.095238  0.142857  0.047619     24.000000
  0.238095  0.190476  0.047619     24.000000
  0.285714  0.190476  0.047619     48.000000
  0.333333  0.190476  0.047619     48.000000
  0.380952  0.190476  0.047619     48.000000
  0.428571  0.190476  0.047619     48.000000
  0.476190  0.190476  0.047619     48.000000
 -0.476190  0.190476  0.047619     48.000000
 -0.428571  0.190476  0.047619     48.000000
 -0.380952  0.190476  0.047619     48.000000
 -0.333333  0.190476  0.047619     48.000000
 -0.285714  0.190476  0.047619     48.000000
 -0.238095  0.190476  0.047619     48.000000
 -0.190476  0.190476  0.047619     48.000000
 -0.142857  0.190476  0.047619     24.000000
  0.285714  0.238095  0.047619     24.000000
  0.333333  0.238095  0.047619     48.000000
  0.380952  0.238095  0.047619     48.000000
  0.428571  0.238095  0.047619     48.000000
  0.476190  0.238095  0.047619     48.000000
 -0.476190  0.238095  0.047619     48.000000
 -0.428571  0.238095  0.047619     48.000000
 -0.380952  0.238095  0.047619     48.000000
 -0.333333  0.238095  0.047619     48.000000
 -0.285714  0.238095  0.047619     48.000000
 -0.238095  0.238095  0.047619     48.000000
 -0.190476  0.238095  0.047619     24.000000
  0.333333  0.285714  0.047619     24.000000
  0.380952  0.285714  0.047619     48.000000
  0.428571  0.285714  0.047619     48.000000
  0.476190  0.285714  0.047619     48.000000
 -0.476190  0.285714  0.047619     48.000000
 -0.428571  0.285714  0.047619     48.000000
 -0.380952  0.285714  0.047619     48.000000
 -0.333333  0.285714  0.047619     48.000000
 -0.285714  0.285714  0.047619     48.000000
 -0.238095  0.285714  0.047619     24.000000
  0.380952  0.333333  0.047619     24.000000
  0.428571  0.333333  0.047619     48.000000
  0.476190  0.333333  0.047619     48.000000
 -0.476190  0.333333  0.047619     48.000000
 -0.428571  0.333333  0.047619     48.000000
 -0.380952  0.333333  0.047619     48.000000
 -0.333333  0.333333  0.047619     48.000000
 -0.285714  0.333333  0.047619     24.000000
  0.428571  0.380952  0.047619     24.000000
  0.476190  0.380952  0.047619     48.000000
 -0.476190  0.380952  0.047619     48.000000
 -0.428571  0.380952  0.047619     48.000000
 -0.380952  0.380952  0.047619     48.000000
 -0.333333  0.380952  0.047619     24.000000
  0.476190  0.428571  0.047619     24.000000
 -0.476190  0.428571  0.047619     48.000000
 -0.428571  0.428571  0.047619     48.000000
 -0.380952  0.428571  0.047619     24.000000
 -0.476190  0.476190  0.047619     24.000000
 -0.428571  0.476190  0.047619     24.000000
  0.285714  0.190476  0.095238     24.000000
  0.333333  0.190476  0.095238     48.000000
  0.380952  0.190476  0.095238     48.000000
  0.428571  0.190476  0.095238     48.000000
  0.476190  0.190476  0.095238     48.000000
 -0.476190  0.190476  0.095238     48.000000
 -0.428571  0.190476  0.095238     48.000000
  0.333333  0.238095  0.095238     24.000000
  0.380952  0.238095  0.095238     48.000000
  0.428571  0.238095  0.095238     48.000000
  0.476190  0.238095  0.095238     48.000000
 -0.476190  0.238095  0.095238     48.000000
 -0.428571  0.238095  0.095238     48.000000
 -0.380952  0.238095  0.095238     48.000000
 -0.333333  0.238095  0.095238     48.000000
 -0.285714  0.238095  0.095238     48.000000
 -0.238095  0.238095  0.095238     48.000000
 -0.190476  0.238095  0.095238     48.000000
 -0.142857  0.238095  0.095238     24.000000
  0.380952  0.285714  0.095238     24.000000
  0.428571  0.285714  0.095238     48.000000
  0.476190  0.285714  0.095238     48.000000
 -0.476190  0.285714  0.095238     48.000000
 -0.428571  0.285714  0.095238     48.000000
 -0.380952  0.285714  0.095238     48.000000
 -0.333333  0.285714  0.095238     48.000000
 -0.285714  0.285714  0.095238     48.000000
 -0.238095  0.285714  0.095238     48.000000
 -0.190476  0.285714  0.095238     24.000000
  0.428571  0.333333  0.095238     24.000000
  0.476190  0.333333  0.095238     48.000000
 -0.476190  0.333333  0.095238     48.000000
 -0.428571  0.333333  0.095238     48.000000
 -0.380952  0.333333  0.095238     48.000000
 -0.333333  0.333333  0.095238     48.000000
 -0.285714  0.333333  0.095238     48.000000
 -0.238095  0.333333  0.095238     24.000000
  0.476190  0.380952  0.095238     24.000000
 -0.476190  0.380952  0.095238     48.000000
 -0.428571  0.380952  0.095238     48.000000
 -0.380952  0.380952  0.095238     48.000000
 -0.333333  0.380952  0.095238     48.000000
 -0.285714  0.380952  0.095238     24.000000
 -0.476190  0.428571  0.095238     24.000000
 -0.428571  0.428571  0.095238     48.000000
 -0.380952  0.428571  0.095238     48.000000
 -0.333333  0.428571  0.095238     24.000000
 -0.428571  0.476190  0.095238     24.000000
 -0.380952  0.476190  0.095238     24.000000
  0.428571  0.285714  0.142857     24.000000
  0.476190  0.285714  0.142857     48.000000
 -0.476190  0.285714  0.142857     48.000000
 -0.428571  0.285714  0.142857     48.000000
 -0.380952  0.285714  0.142857     48.000000
  0.476190  0.333333  0.142857     24.000000
 -0.476190  0.333333  0.142857     48.000000
 -0.428571  0.333333  0.142857     48.000000
 -0.380952  0.333333  0.142857     48.000000
 -0.333333  0.333333  0.142857     48.000000
 -0.285714  0.333333  0.142857     48.000000
 -0.238095  0.333333  0.142857     48.000000
 -0.190476  0.333333  0.142857     24.000000
 -0.476190  0.380952  0.142857     24.000000
 -0.428571  0.380952  0.142857     48.000000
 -0.380952  0.380952  0.142857     48.000000
 -0.333333  0.380952  0.142857     48.000000
 -0.285714  0.380952  0.142857     48.000000
 -0.238095  0.380952  0.142857     24.000000
 -0.428571  0.428571  0.142857     24.000000
 -0.380952  0.428571  0.142857     48.000000
 -0.333333  0.428571  0.142857     48.000000
 -0.285714  0.428571  0.142857     24.000000
 -0.380952  0.476190  0.142857     24.000000
 -0.333333  0.476190  0.142857     24.000000
 -0.428571  0.380952  0.190476     24.000000
 -0.380952  0.380952  0.190476     48.000000
 -0.333333  0.380952  0.190476     48.000000
 -0.380952  0.428571  0.190476     24.000000
 -0.333333  0.428571  0.190476     48.000000
 -0.285714  0.428571  0.190476     48.000000
 -0.238095  0.428571  0.190476     24.000000
 -0.333333  0.476190  0.190476     24.000000
 -0.285714  0.476190  0.190476     24.000000
 -0.285714  0.476190  0.238095     24.000000
 
 Following cartesian coordinates:
            Coordinates               Weight
  0.000000  0.000000  0.000000      1.000000
  0.047619  0.047619 -0.047619      8.000000
  0.095238  0.095238 -0.095238      8.000000
  0.142857  0.142857 -0.142857      8.000000
  0.190476  0.190476 -0.190476      8.000000
  0.238095  0.238095 -0.238095      8.000000
  0.285714  0.285714 -0.285714      8.000000
  0.333333  0.333333 -0.333333      8.000000
  0.380952  0.380952 -0.380952      8.000000
  0.428571  0.428571 -0.428571      8.000000
  0.476190  0.476190 -0.476190      8.000000
  0.000000  0.095238  0.000000      6.000000
  0.047619  0.142857 -0.047619     24.000000
  0.095238  0.190476 -0.095238     24.000000
  0.142857  0.238095 -0.142857     24.000000
  0.190476  0.285714 -0.190476     24.000000
  0.238095  0.333333 -0.238095     24.000000
  0.285714  0.380952 -0.285714     24.000000
  0.333333  0.428571 -0.333333     24.000000
  0.380952  0.476190 -0.380952     24.000000
  0.428571  0.523810 -0.428571     24.000000
 -0.523810 -0.428571  0.523810     24.000000
 -0.476190 -0.380952  0.476190     24.000000
 -0.428571 -0.333333  0.428571     24.000000
 -0.380952 -0.285714  0.380952     24.000000
 -0.333333 -0.238095  0.333333     24.000000
 -0.285714 -0.190476  0.285714     24.000000
 -0.238095 -0.142857  0.238095     24.000000
 -0.190476 -0.095238  0.190476     24.000000
 -0.142857 -0.047619  0.142857     24.000000
 -0.095238  0.000000  0.095238     12.000000
  0.000000  0.190476  0.000000      6.000000
  0.047619  0.238095 -0.047619     24.000000
  0.095238  0.285714 -0.095238     24.000000
  0.142857  0.333333 -0.142857     24.000000
  0.190476  0.380952 -0.190476     24.000000
  0.238095  0.428571 -0.238095     24.000000
  0.285714  0.476190 -0.285714     24.000000
  0.333333  0.523810 -0.333333     24.000000
  0.380952  0.571429 -0.380952     24.000000
 -0.571429 -0.380952  0.571429     24.000000
 -0.523810 -0.333333  0.523810     24.000000
 -0.476190 -0.285714  0.476190     24.000000
 -0.428571 -0.238095  0.428571     24.000000
 -0.380952 -0.190476  0.380952     24.000000
 -0.333333 -0.142857  0.333333     24.000000
 -0.285714 -0.095238  0.285714     24.000000
 -0.238095 -0.047619  0.238095     24.000000
 -0.190476  0.000000  0.190476     12.000000
  0.000000  0.285714  0.000000      6.000000
  0.047619  0.333333 -0.047619     24.000000
  0.095238  0.380952 -0.095238     24.000000
  0.142857  0.428571 -0.142857     24.000000
  0.190476  0.476190 -0.190476     24.000000
  0.238095  0.523810 -0.238095     24.000000
  0.285714  0.571429 -0.285714     24.000000
  0.333333  0.619048 -0.333333     24.000000
 -0.619048 -0.333333  0.619048     24.000000
 -0.571429 -0.285714  0.571429     24.000000
 -0.523810 -0.238095  0.523810     24.000000
 -0.476190 -0.190476  0.476190     24.000000
 -0.428571 -0.142857  0.428571     24.000000
 -0.380952 -0.095238  0.380952     24.000000
 -0.333333 -0.047619  0.333333     24.000000
 -0.285714  0.000000  0.285714     12.000000
  0.000000  0.380952  0.000000      6.000000
  0.047619  0.428571 -0.047619     24.000000
  0.095238  0.476190 -0.095238     24.000000
  0.142857  0.523810 -0.142857     24.000000
  0.190476  0.571429 -0.190476     24.000000
  0.238095  0.619048 -0.238095     24.000000
  0.285714  0.666667 -0.285714     24.000000
 -0.666667 -0.285714  0.666667     24.000000
 -0.619048 -0.238095  0.619048     24.000000
 -0.571429 -0.190476  0.571429     24.000000
 -0.523810 -0.142857  0.523810     24.000000
 -0.476190 -0.095238  0.476190     24.000000
 -0.428571 -0.047619  0.428571     24.000000
 -0.380952  0.000000  0.380952     12.000000
  0.000000  0.476190  0.000000      6.000000
  0.047619  0.523810 -0.047619     24.000000
  0.095238  0.571429 -0.095238     24.000000
  0.142857  0.619048 -0.142857     24.000000
  0.190476  0.666667 -0.190476     24.000000
  0.238095  0.714286 -0.238095     24.000000
 -0.714286 -0.238095  0.714286     24.000000
 -0.666667 -0.190476  0.666667     24.000000
 -0.619048 -0.142857  0.619048     24.000000
 -0.571429 -0.095238  0.571429     24.000000
 -0.523810 -0.047619  0.523810     24.000000
 -0.476190  0.000000  0.476190     12.000000
  0.000000  0.571429  0.000000      6.000000
  0.047619  0.619048 -0.047619     24.000000
  0.095238  0.666667 -0.095238     24.000000
  0.142857  0.714286 -0.142857     24.000000
  0.190476  0.761905 -0.190476     24.000000
 -0.761905 -0.190476  0.761905     24.000000
 -0.714286 -0.142857  0.714286     24.000000
 -0.666667 -0.095238  0.666667     24.000000
 -0.619048 -0.047619  0.619048     24.000000
 -0.571429  0.000000  0.571429     12.000000
  0.000000  0.666667  0.000000      6.000000
  0.047619  0.714286 -0.047619     24.000000
  0.095238  0.761905 -0.095238     24.000000
  0.142857  0.809524 -0.142857     24.000000
 -0.809524 -0.142857  0.809524     24.000000
 -0.761905 -0.095238  0.761905     24.000000
 -0.714286 -0.047619  0.714286     24.000000
 -0.666667  0.000000  0.666667     12.000000
  0.000000  0.761905  0.000000      6.000000
  0.047619  0.809524 -0.047619     24.000000
  0.095238  0.857143 -0.095238     24.000000
 -0.857143 -0.095238  0.857143     24.000000
 -0.809524 -0.047619  0.809524     24.000000
 -0.761905  0.000000  0.761905     12.000000
  0.000000  0.857143  0.000000      6.000000
  0.047619  0.904762 -0.047619     24.000000
 -0.904762 -0.047619  0.904762     24.000000
 -0.857143  0.000000  0.857143     12.000000
  0.000000  0.952381  0.000000      6.000000
 -0.952381  0.000000  0.952381     12.000000
  0.095238  0.190476 -0.000000     24.000000
  0.142857  0.238095 -0.047619     48.000000
  0.190476  0.285714 -0.095238     48.000000
  0.238095  0.333333 -0.142857     48.000000
  0.285714  0.380952 -0.190476     48.000000
  0.333333  0.428571 -0.238095     48.000000
  0.380952  0.476190 -0.285714     48.000000
  0.428571  0.523810 -0.333333     48.000000
 -0.523810 -0.428571  0.619048     48.000000
  0.095238  0.285714 -0.000000     24.000000
  0.142857  0.333333 -0.047619     48.000000
  0.190476  0.380952 -0.095238     48.000000
  0.238095  0.428571 -0.142857     48.000000
  0.285714  0.476190 -0.190476     48.000000
  0.333333  0.523810 -0.238095     48.000000
  0.380952  0.571429 -0.285714     48.000000
 -0.571429 -0.380952  0.666667     48.000000
 -0.523810 -0.333333  0.619048     48.000000
 -0.476190 -0.285714  0.571429     48.000000
 -0.428571 -0.238095  0.523810     48.000000
 -0.380952 -0.190476  0.476190     48.000000
 -0.333333 -0.142857  0.428571     48.000000
 -0.285714 -0.095238  0.380952     48.000000
 -0.238095 -0.047619  0.333333     48.000000
 -0.190476  0.000000  0.285714     24.000000
  0.095238  0.380952  0.000000     24.000000
  0.142857  0.428571 -0.047619     48.000000
  0.190476  0.476190 -0.095238     48.000000
  0.238095  0.523810 -0.142857     48.000000
  0.285714  0.571429 -0.190476     48.000000
  0.333333  0.619048 -0.238095     48.000000
 -0.619048 -0.333333  0.714286     48.000000
 -0.571429 -0.285714  0.666667     48.000000
 -0.523810 -0.238095  0.619048     48.000000
 -0.476190 -0.190476  0.571429     48.000000
 -0.428571 -0.142857  0.523810     48.000000
 -0.380952 -0.095238  0.476190     48.000000
 -0.333333 -0.047619  0.428571     48.000000
 -0.285714  0.000000  0.380952     24.000000
  0.095238  0.476190 -0.000000     24.000000
  0.142857  0.523810 -0.047619     48.000000
  0.190476  0.571429 -0.095238     48.000000
  0.238095  0.619048 -0.142857     48.000000
  0.285714  0.666667 -0.190476     48.000000
 -0.666667 -0.285714  0.761905     48.000000
 -0.619048 -0.238095  0.714286     48.000000
 -0.571429 -0.190476  0.666667     48.000000
 -0.523810 -0.142857  0.619048     48.000000
 -0.476190 -0.095238  0.571429     48.000000
 -0.428571 -0.047619  0.523810     48.000000
 -0.380952  0.000000  0.476190     24.000000
  0.095238  0.571429  0.000000     24.000000
  0.142857  0.619048 -0.047619     48.000000
  0.190476  0.666667 -0.095238     48.000000
  0.238095  0.714286 -0.142857     48.000000
 -0.714286 -0.238095  0.809524     48.000000
 -0.666667 -0.190476  0.761905     48.000000
 -0.619048 -0.142857  0.714286     48.000000
 -0.571429 -0.095238  0.666667     48.000000
 -0.523810 -0.047619  0.619048     48.000000
 -0.476190  0.000000  0.571429     24.000000
  0.095238  0.666667 -0.000000     24.000000
  0.142857  0.714286 -0.047619     48.000000
  0.190476  0.761905 -0.095238     48.000000
 -0.761905 -0.190476  0.857143     48.000000
 -0.714286 -0.142857  0.809524     48.000000
 -0.666667 -0.095238  0.761905     48.000000
 -0.619048 -0.047619  0.714286     48.000000
 -0.571429  0.000000  0.666667     24.000000
  0.095238  0.761905  0.000000     24.000000
  0.142857  0.809524 -0.047619     48.000000
 -0.809524 -0.142857  0.904762     48.000000
 -0.761905 -0.095238  0.857143     48.000000
 -0.714286 -0.047619  0.809524     48.000000
 -0.666667  0.000000  0.761905     24.000000
  0.095238  0.857143  0.000000     24.000000
 -0.857143 -0.095238  0.952381     48.000000
 -0.809524 -0.047619  0.904762     48.000000
 -0.761905  0.000000  0.857143     24.000000
 -0.904762 -0.047619  1.000000     24.000000
 -0.857143  0.000000  0.952381     24.000000
  0.190476  0.380952 -0.000000     24.000000
  0.238095  0.428571 -0.047619     48.000000
  0.285714  0.476190 -0.095238     48.000000
  0.333333  0.523810 -0.142857     48.000000
  0.380952  0.571429 -0.190476     48.000000
 -0.571429 -0.380952  0.761905     48.000000
 -0.523810 -0.333333  0.714286     48.000000
  0.190476  0.476190 -0.000000     24.000000
  0.238095  0.523810 -0.047619     48.000000
  0.285714  0.571429 -0.095238     48.000000
  0.333333  0.619048 -0.142857     48.000000
 -0.619048 -0.333333  0.809524     48.000000
 -0.571429 -0.285714  0.761905     48.000000
 -0.523810 -0.238095  0.714286     48.000000
 -0.476190 -0.190476  0.666667     48.000000
 -0.428571 -0.142857  0.619048     48.000000
 -0.380952 -0.095238  0.571429     48.000000
 -0.333333 -0.047619  0.523810     48.000000
 -0.285714  0.000000  0.476190     24.000000
  0.190476  0.571429 -0.000000     24.000000
  0.238095  0.619048 -0.047619     48.000000
  0.285714  0.666667 -0.095238     48.000000
 -0.666667 -0.285714  0.857143     48.000000
 -0.619048 -0.238095  0.809524     48.000000
 -0.571429 -0.190476  0.761905     48.000000
 -0.523810 -0.142857  0.714286     48.000000
 -0.476190 -0.095238  0.666667     48.000000
 -0.428571 -0.047619  0.619048     48.000000
 -0.380952  0.000000  0.571429     24.000000
  0.190476  0.666667 -0.000000     24.000000
  0.238095  0.714286 -0.047619     48.000000
 -0.714286 -0.238095  0.904762     48.000000
 -0.666667 -0.190476  0.857143     48.000000
 -0.619048 -0.142857  0.809524     48.000000
 -0.571429 -0.095238  0.761905     48.000000
 -0.523810 -0.047619  0.714286     48.000000
 -0.476190  0.000000  0.666667     24.000000
  0.190476  0.761905  0.000000     24.000000
 -0.761905 -0.190476  0.952381     48.000000
 -0.714286 -0.142857  0.904762     48.000000
 -0.666667 -0.095238  0.857143     48.000000
 -0.619048 -0.047619  0.809524     48.000000
 -0.571429  0.000000  0.761905     24.000000
 -0.809524 -0.142857  1.000000     24.000000
 -0.761905 -0.095238  0.952381     48.000000
 -0.714286 -0.047619  0.904762     48.000000
 -0.666667  0.000000  0.857143     24.000000
 -0.809524 -0.047619  1.000000     24.000000
 -0.761905  0.000000  0.952381     24.000000
  0.285714  0.571429  0.000000     24.000000
  0.333333  0.619048 -0.047619     48.000000
 -0.619048 -0.333333  0.904762     48.000000
 -0.571429 -0.285714  0.857143     48.000000
 -0.523810 -0.238095  0.809524     48.000000
  0.285714  0.666667  0.000000     24.000000
 -0.666667 -0.285714  0.952381     48.000000
 -0.619048 -0.238095  0.904762     48.000000
 -0.571429 -0.190476  0.857143     48.000000
 -0.523810 -0.142857  0.809524     48.000000
 -0.476190 -0.095238  0.761905     48.000000
 -0.428571 -0.047619  0.714286     48.000000
 -0.380952  0.000000  0.666667     24.000000
 -0.714286 -0.238095  1.000000     24.000000
 -0.666667 -0.190476  0.952381     48.000000
 -0.619048 -0.142857  0.904762     48.000000
 -0.571429 -0.095238  0.857143     48.000000
 -0.523810 -0.047619  0.809524     48.000000
 -0.476190  0.000000  0.761905     24.000000
 -0.714286 -0.142857  1.000000     24.000000
 -0.666667 -0.095238  0.952381     48.000000
 -0.619048 -0.047619  0.904762     48.000000
 -0.571429  0.000000  0.857143     24.000000
 -0.714286 -0.047619  1.000000     24.000000
 -0.666667  0.000000  0.952381     24.000000
 -0.619048 -0.238095  1.000000     24.000000
 -0.571429 -0.190476  0.952381     48.000000
 -0.523810 -0.142857  0.904762     48.000000
 -0.619048 -0.142857  1.000000     24.000000
 -0.571429 -0.095238  0.952381     48.000000
 -0.523810 -0.047619  0.904762     48.000000
 -0.476190  0.000000  0.857143     24.000000
 -0.619048 -0.047619  1.000000     24.000000
 -0.571429  0.000000  0.952381     24.000000
 -0.523810 -0.047619  1.000000     24.000000
 
 TETIRR: Found   1276 inequivalent tetrahedra from    55566


--------------------------------------------------------------------------------------------------------




 Dimension of arrays:
   k-points           NKPTS =    286   k-points in BZ     NKDIM =    286   number of bands    NBANDS=      6
   number of dos      NEDOS =    301   number of ions     NIONS =      1
   non local maximal  LDIM  =      4   non local SUM 2l+1 LMDIM =      8
   total plane-waves  NPLWV =   1000
   max r-space proj   IRMAX =      1   max aug-charges    IRDMAX=   2454
   dimension x,y,z NGX =    10 NGY =   10 NGZ =   10
   dimension x,y,z NGXF=    20 NGYF=   20 NGZF=   20
   support grid    NGXF=    20 NGYF=   20 NGZF=   20
   ions per type =               1
 NGX,Y,Z   is equivalent  to a cutoff of   6.03,  6.03,  6.03 a.u.
 NGXF,Y,Z  is equivalent  to a cutoff of  12.06, 12.06, 12.06 a.u.


 I would recommend the setting:
   dimension x,y,z NGX =    10 NGY =   10 NGZ =   10
 SYSTEM =  fcc Si                                  
 POSCAR =  fcc Si:                                 

 Startparameter for this run:
   NWRITE =      2    write-flag & timer
   PREC   = normal    normal or accurate (medium, high low for compatibility)
   ISTART =      0    job   : 0-new  1-cont  2-samecut
   ICHARG =      2    charge: 1-file 2-atom 10-const
   ISPIN  =      1    spin polarized calculation?
   LNONCOLLINEAR =      F non collinear calculations
   LSORBIT =      F    spin-orbit coupling
   INIWAV =      1    electr: 0-lowe 1-rand  2-diag
   LASPH  =      F    aspherical Exc in radial PAW
   METAGGA=      F    non-selfconsistent MetaGGA calc.

 Electronic Relaxation 1
   ENCUT  =  240.0 eV  17.64 Ry    4.20 a.u.   3.48  3.48  3.48*2*pi/ulx,y,z
   ENINI  =  240.0     initial cutoff
   ENAUG  =  322.1 eV  augmentation charge cutoff
   NELM   =     60;   NELMIN=  2; NELMDL= -5     # of ELM steps 
   EDIFF  = 0.1E-03   stopping-criterion for ELM
   LREAL  =      F    real-space projection
   NLSPLINE    = F    spline interpolate recip. space projectors
   LCOMPAT=      F    compatible to vasp.4.4
   GGA_COMPAT  = T    GGA compatible to vasp.4.4-vasp.4.6
   LMAXPAW     = -100 max onsite density
   LMAXMIX     =    2 max onsite mixed and CHGCAR
   VOSKOWN=      0    Vosko Wilk Nusair interpolation
   ROPT   =    0.00000
 Ionic relaxation
   EDIFFG = 0.1E-02   stopping-criterion for IOM
   NSW    =      0    number of steps for IOM
   NBLOCK =      1;   KBLOCK =      1    inner block; outer block 
   IBRION =     -1    ionic relax: 0-MD 1-quasi-New 2-CG
   NFREE  =      0    steps in history (QN), initial steepest desc. (CG)
   ISIF   =      2    stress and relaxation
   IWAVPR =     10    prediction:  0-non 1-charg 2-wave 3-comb
   ISYM   =      2    0-nonsym 1-usesym 2-fastsym
   LCORR  =      T    Harris-Foulkes like correction to forces

   POTIM  = 0.5000    time-step for ionic-motion
   TEIN   =    0.0    initial temperature
   TEBEG  =    0.0;   TEEND  =   0.0 temperature during run
   SMASS  =  -3.00    Nose mass-parameter (am)
   estimated Nose-frequenzy (Omega)   =  0.10E-29 period in steps =****** mass=  -0.174E-27a.u.
   SCALEE = 1.0000    scale energy and forces
   NPACO  =    256;   APACO  = 16.0  distance and # of slots for P.C.
   PSTRESS=    0.0 pullay stress

  Mass of Ions in am
   POMASS =  28.09
  Ionic Valenz
   ZVAL   =   4.00
  Atomic Wigner-Seitz radii
   RWIGS  =  -1.00
  virtual crystal weights 
   VCA    =   1.00
   NELECT =       4.0000    total number of electrons
   NUPDOWN=      -1.0000    fix difference up-down

 DOS related values:
   EMIN   =  10.00;   EMAX   =-10.00  energy-range for DOS
   EFERMI =   0.00
   ISMEAR =    -5;   SIGMA  =   0.20  broadening in eV -4-tet -1-fermi 0-gaus

 Electronic relaxation 2 (details)
   IALGO  =     38    algorithm
   LDIAG  =      T    sub-space diagonalisation (order eigenvalues)
   LSUBROT=      F    optimize rotation matrix (better conditioning)
   TURBO    =      0    0=normal 1=particle mesh
   IRESTART =      0    0=no restart 2=restart with 2 vectors
   NREBOOT  =      0    no. of reboots
   NMIN     =      0    reboot dimension
   EREF     =   0.00    reference energy to select bands
   IMIX   =      4    mixing-type and parameters
     AMIX     =   0.40;   BMIX     =  1.00
     AMIX_MAG =   1.60;   BMIX_MAG =  1.00
     AMIN     =   0.10
     WC   =   100.;   INIMIX=   1;  MIXPRE=   1;  MAXMIX= -45

 Intra band minimization:
   WEIMIN = 0.0000     energy-eigenvalue tresh-hold
   EBREAK =  0.42E-05  absolut break condition
   DEPER  =   0.30     relativ break condition  

   TIME   =   0.40     timestep for ELM

  volume/ion in A,a.u.               =      14.83       100.08
  Fermi-wavevector in a.u.,A,eV,Ry     =   1.057751  1.998860 15.222711  1.118838
  Thomas-Fermi vector in A             =   2.193036
 
 Write flags
   LWAVE  =      T    write WAVECAR
   LCHARG =      T    write CHGCAR
   LVTOT  =      F    write LOCPOT, total local potential
   LVHAR  =      F    write LOCPOT, Hartree potential only
   LELF   =      F    write electronic localiz. function (ELF)
   LORBIT =     11    0 simple, 1 ext, 2 COOP (PROOUT)


 Dipole corrections
   LMONO  =      F    monopole corrections only (constant potential shift)
   LDIPOL =      F    correct potential (dipole corrections)
   IDIPOL =      0    1-x, 2-y, 3-z, 4-all directions 
   EPSILON=  1.0000000 bulk dielectric constant

 Exchange correlation treatment:
   GGA     =    --    GGA type
   LEXCH   =     2    internal setting for exchange type
   VOSKOWN=      0    Vosko Wilk Nusair interpolation
   LHFCALC =     F    Hartree Fock is set to
   LHFONE  =     F    Hartree Fock one center treatment
   AEXX    =    0.0000 exact exchange contribution

 Linear response parameters
   LEPSILON=     F    determine dielectric tensor
   LRPA    =     F    only Hartree local field effects (RPA)
   LNABLA  =     F    use nabla operator in PAW spheres
   LVEL    =     F    velocity operator in full k-point grid
   LINTERFAST=   F  fast interpolation
   KINTER  =     0    interpolate to denser k-point grid
   CSHIFT  =0.1000    complex shift for real part using Kramers Kronig
   OMEGAMAX=  -1.0    maximum frequency
   DEG_THRESHOLD= 0.2000000E-02 threshold for treating states as degnerate
   RTIME   =    0.100 relaxation time in fs

 Orbital magnetization related:
   ORBITALMAG=     F  switch on orbital magnetization
   LCHIMAG   =     F  perturbation theory with respect to B field
   DQ        =  0.001000  dq finite difference perturbation B field



--------------------------------------------------------------------------------------------------------


 Static calculation
 charge density and potential will be updated during run
 non-spin polarized calculation
 Variant of blocked Davidson
 Davidson routine will perform the subspace rotation
 perform sub-space diagonalisation
    after iterative eigenvector-optimisation
 modified Broyden-mixing scheme, WC =      100.0
 initial mixing is a Kerker type mixing with AMIX =  0.4000 and BMIX =      1.0000
 Hartree-type preconditioning will be used
 using additional bands            4
 reciprocal scheme for non local part
 use partial core corrections
 calculate Harris-corrections to forces 
   (improved forces if not selfconsistent)
 use of overlap-Matrix (Vanderbilt PP)
 Fermi weights with tetrahedron method with Bloechl corrections


--------------------------------------------------------------------------------------------------------


  energy-cutoff  :      240.00
  volume of cell :       14.83
      direct lattice vectors                 reciprocal lattice vectors
     1.950000000  1.950000000  0.000000000     0.256410256  0.256410256 -0.256410256
     0.000000000  1.950000000  1.950000000    -0.256410256  0.256410256  0.256410256
     1.950000000  0.000000000  1.950000000     0.256410256 -0.256410256  0.256410256

  length of vectors
     2.757716447  2.757716447  2.757716447     0.444115592  0.444115592  0.444115592


 
 k-points in units of 2pi/SCALE and weight: k-points                                
   0.00000000  0.00000000  0.00000000       0.000
   0.04761905  0.04761905 -0.04761905       0.001
   0.09523810  0.09523810 -0.09523810       0.001
   0.14285714  0.14285714 -0.14285714       0.001
   0.19047619  0.19047619 -0.19047619       0.001
   0.23809524  0.23809524 -0.23809524       0.001
   0.28571429  0.28571429 -0.28571429       0.001
   0.33333333  0.33333333 -0.33333333       0.001
   0.38095238  0.38095238 -0.38095238       0.001
   0.42857143  0.42857143 -0.42857143       0.001
   0.47619048  0.47619048 -0.47619048       0.001
   0.00000000  0.09523810  0.00000000       0.001
   0.04761905  0.14285714 -0.04761905       0.003
   0.09523810  0.19047619 -0.09523810       0.003
   0.14285714  0.23809524 -0.14285714       0.003
   0.19047619  0.28571429 -0.19047619       0.003
   0.23809524  0.33333333 -0.23809524       0.003
   0.28571429  0.38095238 -0.28571429       0.003
   0.33333333  0.42857143 -0.33333333       0.003
   0.38095238  0.47619048 -0.38095238       0.003
   0.42857143  0.52380952 -0.42857143       0.003
  -0.52380952 -0.42857143  0.52380952       0.003
  -0.47619048 -0.38095238  0.47619048       0.003
  -0.42857143 -0.33333333  0.42857143       0.003
  -0.38095238 -0.28571429  0.38095238       0.003
  -0.33333333 -0.23809524  0.33333333       0.003
  -0.28571429 -0.19047619  0.28571429       0.003
  -0.23809524 -0.14285714  0.23809524       0.003
  -0.19047619 -0.09523810  0.19047619       0.003
  -0.14285714 -0.04761905  0.14285714       0.003
  -0.09523810  0.00000000  0.09523810       0.001
   0.00000000  0.19047619  0.00000000       0.001
   0.04761905  0.23809524 -0.04761905       0.003
   0.09523810  0.28571429 -0.09523810       0.003
   0.14285714  0.33333333 -0.14285714       0.003
   0.19047619  0.38095238 -0.19047619       0.003
   0.23809524  0.42857143 -0.23809524       0.003
   0.28571429  0.47619048 -0.28571429       0.003
   0.33333333  0.52380952 -0.33333333       0.003
   0.38095238  0.57142857 -0.38095238       0.003
  -0.57142857 -0.38095238  0.57142857       0.003
  -0.52380952 -0.33333333  0.52380952       0.003
  -0.47619048 -0.28571429  0.47619048       0.003
  -0.42857143 -0.23809524  0.42857143       0.003
  -0.38095238 -0.19047619  0.38095238       0.003
  -0.33333333 -0.14285714  0.33333333       0.003
  -0.28571429 -0.09523810  0.28571429       0.003
  -0.23809524 -0.04761905  0.23809524       0.003
  -0.19047619  0.00000000  0.19047619       0.001
   0.00000000  0.28571429  0.00000000       0.001
   0.04761905  0.33333333 -0.04761905       0.003
   0.09523810  0.38095238 -0.09523810       0.003
   0.14285714  0.42857143 -0.14285714       0.003
   0.19047619  0.47619048 -0.19047619       0.003
   0.23809524  0.52380952 -0.23809524       0.003
   0.28571429  0.57142857 -0.28571429       0.003
   0.33333333  0.61904762 -0.33333333       0.003
  -0.61904762 -0.33333333  0.61904762       0.003
  -0.57142857 -0.28571429  0.57142857       0.003
  -0.52380952 -0.23809524  0.52380952       0.003
  -0.47619048 -0.19047619  0.47619048       0.003
  -0.42857143 -0.14285714  0.42857143       0.003
  -0.38095238 -0.09523810  0.38095238       0.003
  -0.33333333 -0.04761905  0.33333333       0.003
  -0.28571429  0.00000000  0.28571429       0.001
   0.00000000  0.38095238  0.00000000       0.001
   0.04761905  0.42857143 -0.04761905       0.003
   0.09523810  0.47619048 -0.09523810       0.003
   0.14285714  0.52380952 -0.14285714       0.003
   0.19047619  0.57142857 -0.19047619       0.003
   0.23809524  0.61904762 -0.23809524       0.003
   0.28571429  0.66666667 -0.28571429       0.003
  -0.66666667 -0.28571429  0.66666667       0.003
  -0.61904762 -0.23809524  0.61904762       0.003
  -0.57142857 -0.19047619  0.57142857       0.003
  -0.52380952 -0.14285714  0.52380952       0.003
  -0.47619048 -0.09523810  0.47619048       0.003
  -0.42857143 -0.04761905  0.42857143       0.003
  -0.38095238  0.00000000  0.38095238       0.001
   0.00000000  0.47619048  0.00000000       0.001
   0.04761905  0.52380952 -0.04761905       0.003
   0.09523810  0.57142857 -0.09523810       0.003
   0.14285714  0.61904762 -0.14285714       0.003
   0.19047619  0.66666667 -0.19047619       0.003
   0.23809524  0.71428571 -0.23809524       0.003
  -0.71428571 -0.23809524  0.71428571       0.003
  -0.66666667 -0.19047619  0.66666667       0.003
  -0.61904762 -0.14285714  0.61904762       0.003
  -0.57142857 -0.09523810  0.57142857       0.003
  -0.52380952 -0.04761905  0.52380952       0.003
  -0.47619048  0.00000000  0.47619048       0.001
   0.00000000  0.57142857  0.00000000       0.001
   0.04761905  0.61904762 -0.04761905       0.003
   0.09523810  0.66666667 -0.09523810       0.003
   0.14285714  0.71428571 -0.14285714       0.003
   0.19047619  0.76190476 -0.19047619       0.003
  -0.76190476 -0.19047619  0.76190476       0.003
  -0.71428571 -0.14285714  0.71428571       0.003
  -0.66666667 -0.09523810  0.66666667       0.003
  -0.61904762 -0.04761905  0.61904762       0.003
  -0.57142857  0.00000000  0.57142857       0.001
   0.00000000  0.66666667  0.00000000       0.001
   0.04761905  0.71428571 -0.04761905       0.003
   0.09523810  0.76190476 -0.09523810       0.003
   0.14285714  0.80952381 -0.14285714       0.003
  -0.80952381 -0.14285714  0.80952381       0.003
  -0.76190476 -0.09523810  0.76190476       0.003
  -0.71428571 -0.04761905  0.71428571       0.003
  -0.66666667  0.00000000  0.66666667       0.001
   0.00000000  0.76190476  0.00000000       0.001
   0.04761905  0.80952381 -0.04761905       0.003
   0.09523810  0.85714286 -0.09523810       0.003
  -0.85714286 -0.09523810  0.85714286       0.003
  -0.80952381 -0.04761905  0.80952381       0.003
  -0.76190476  0.00000000  0.76190476       0.001
   0.00000000  0.85714286  0.00000000       0.001
   0.04761905  0.90476190 -0.04761905       0.003
  -0.90476190 -0.04761905  0.90476190       0.003
  -0.85714286  0.00000000  0.85714286       0.001
   0.00000000  0.95238095  0.00000000       0.001
  -0.95238095  0.00000000  0.95238095       0.001
   0.09523810  0.19047619 -0.00000000       0.003
   0.14285714  0.23809524 -0.04761905       0.005
   0.19047619  0.28571429 -0.09523810       0.005
   0.23809524  0.33333333 -0.14285714       0.005
   0.28571429  0.38095238 -0.19047619       0.005
   0.33333333  0.42857143 -0.23809524       0.005
   0.38095238  0.47619048 -0.28571429       0.005
   0.42857143  0.52380952 -0.33333333       0.005
  -0.52380952 -0.42857143  0.61904762       0.005
   0.09523810  0.28571429 -0.00000000       0.003
   0.14285714  0.33333333 -0.04761905       0.005
   0.19047619  0.38095238 -0.09523810       0.005
   0.23809524  0.42857143 -0.14285714       0.005
   0.28571429  0.47619048 -0.19047619       0.005
   0.33333333  0.52380952 -0.23809524       0.005
   0.38095238  0.57142857 -0.28571429       0.005
  -0.57142857 -0.38095238  0.66666667       0.005
  -0.52380952 -0.33333333  0.61904762       0.005
  -0.47619048 -0.28571429  0.57142857       0.005
  -0.42857143 -0.23809524  0.52380952       0.005
  -0.38095238 -0.19047619  0.47619048       0.005
  -0.33333333 -0.14285714  0.42857143       0.005
  -0.28571429 -0.09523810  0.38095238       0.005
  -0.23809524 -0.04761905  0.33333333       0.005
  -0.19047619  0.00000000  0.28571429       0.003
   0.09523810  0.38095238  0.00000000       0.003
   0.14285714  0.42857143 -0.04761905       0.005
   0.19047619  0.47619048 -0.09523810       0.005
   0.23809524  0.52380952 -0.14285714       0.005
   0.28571429  0.57142857 -0.19047619       0.005
   0.33333333  0.61904762 -0.23809524       0.005
  -0.61904762 -0.33333333  0.71428571       0.005
  -0.57142857 -0.28571429  0.66666667       0.005
  -0.52380952 -0.23809524  0.61904762       0.005
  -0.47619048 -0.19047619  0.57142857       0.005
  -0.42857143 -0.14285714  0.52380952       0.005
  -0.38095238 -0.09523810  0.47619048       0.005
  -0.33333333 -0.04761905  0.42857143       0.005
  -0.28571429  0.00000000  0.38095238       0.003
   0.09523810  0.47619048 -0.00000000       0.003
   0.14285714  0.52380952 -0.04761905       0.005
   0.19047619  0.57142857 -0.09523810       0.005
   0.23809524  0.61904762 -0.14285714       0.005
   0.28571429  0.66666667 -0.19047619       0.005
  -0.66666667 -0.28571429  0.76190476       0.005
  -0.61904762 -0.23809524  0.71428571       0.005
  -0.57142857 -0.19047619  0.66666667       0.005
  -0.52380952 -0.14285714  0.61904762       0.005
  -0.47619048 -0.09523810  0.57142857       0.005
  -0.42857143 -0.04761905  0.52380952       0.005
  -0.38095238  0.00000000  0.47619048       0.003
   0.09523810  0.57142857  0.00000000       0.003
   0.14285714  0.61904762 -0.04761905       0.005
   0.19047619  0.66666667 -0.09523810       0.005
   0.23809524  0.71428571 -0.14285714       0.005
  -0.71428571 -0.23809524  0.80952381       0.005
  -0.66666667 -0.19047619  0.76190476       0.005
  -0.61904762 -0.14285714  0.71428571       0.005
  -0.57142857 -0.09523810  0.66666667       0.005
  -0.52380952 -0.04761905  0.61904762       0.005
  -0.47619048  0.00000000  0.57142857       0.003
   0.09523810  0.66666667 -0.00000000       0.003
   0.14285714  0.71428571 -0.04761905       0.005
   0.19047619  0.76190476 -0.09523810       0.005
  -0.76190476 -0.19047619  0.85714286       0.005
  -0.71428571 -0.14285714  0.80952381       0.005
  -0.66666667 -0.09523810  0.76190476       0.005
  -0.61904762 -0.04761905  0.71428571       0.005
  -0.57142857  0.00000000  0.66666667       0.003
   0.09523810  0.76190476  0.00000000       0.003
   0.14285714  0.80952381 -0.04761905       0.005
  -0.80952381 -0.14285714  0.90476190       0.005
  -0.76190476 -0.09523810  0.85714286       0.005
  -0.71428571 -0.04761905  0.80952381       0.005
  -0.66666667  0.00000000  0.76190476       0.003
   0.09523810  0.85714286  0.00000000       0.003
  -0.85714286 -0.09523810  0.95238095       0.005
  -0.80952381 -0.04761905  0.90476190       0.005
  -0.76190476  0.00000000  0.85714286       0.003
  -0.90476190 -0.04761905  1.00000000       0.003
  -0.85714286  0.00000000  0.95238095       0.003
   0.19047619  0.38095238 -0.00000000       0.003
   0.23809524  0.42857143 -0.04761905       0.005
   0.28571429  0.47619048 -0.09523810       0.005
   0.33333333  0.52380952 -0.14285714       0.005
   0.38095238  0.57142857 -0.19047619       0.005
  -0.57142857 -0.38095238  0.76190476       0.005
  -0.52380952 -0.33333333  0.71428571       0.005
   0.19047619  0.47619048 -0.00000000       0.003
   0.23809524  0.52380952 -0.04761905       0.005
   0.28571429  0.57142857 -0.09523810       0.005
   0.33333333  0.61904762 -0.14285714       0.005
  -0.61904762 -0.33333333  0.80952381       0.005
  -0.57142857 -0.28571429  0.76190476       0.005
  -0.52380952 -0.23809524  0.71428571       0.005
  -0.47619048 -0.19047619  0.66666667       0.005
  -0.42857143 -0.14285714  0.61904762       0.005
  -0.38095238 -0.09523810  0.57142857       0.005
  -0.33333333 -0.04761905  0.52380952       0.005
  -0.28571429  0.00000000  0.47619048       0.003
   0.19047619  0.57142857 -0.00000000       0.003
   0.23809524  0.61904762 -0.04761905       0.005
   0.28571429  0.66666667 -0.09523810       0.005
  -0.66666667 -0.28571429  0.85714286       0.005
  -0.61904762 -0.23809524  0.80952381       0.005
  -0.57142857 -0.19047619  0.76190476       0.005
  -0.52380952 -0.14285714  0.71428571       0.005
  -0.47619048 -0.09523810  0.66666667       0.005
  -0.42857143 -0.04761905  0.61904762       0.005
  -0.38095238  0.00000000  0.57142857       0.003
   0.19047619  0.66666667 -0.00000000       0.003
   0.23809524  0.71428571 -0.04761905       0.005
  -0.71428571 -0.23809524  0.90476190       0.005
  -0.66666667 -0.19047619  0.85714286       0.005
  -0.61904762 -0.14285714  0.80952381       0.005
  -0.57142857 -0.09523810  0.76190476       0.005
  -0.52380952 -0.04761905  0.71428571       0.005
  -0.47619048  0.00000000  0.66666667       0.003
   0.19047619  0.76190476  0.00000000       0.003
  -0.76190476 -0.19047619  0.95238095       0.005
  -0.71428571 -0.14285714  0.90476190       0.005
  -0.66666667 -0.09523810  0.85714286       0.005
  -0.61904762 -0.04761905  0.80952381       0.005
  -0.57142857  0.00000000  0.76190476       0.003
  -0.80952381 -0.14285714  1.00000000       0.003
  -0.76190476 -0.09523810  0.95238095       0.005
  -0.71428571 -0.04761905  0.90476190       0.005
  -0.66666667  0.00000000  0.85714286       0.003
  -0.80952381 -0.04761905  1.00000000       0.003
  -0.76190476  0.00000000  0.95238095       0.003
   0.28571429  0.57142857  0.00000000       0.003
   0.33333333  0.61904762 -0.04761905       0.005
  -0.61904762 -0.33333333  0.90476190       0.005
  -0.57142857 -0.28571429  0.85714286       0.005
  -0.52380952 -0.23809524  0.80952381       0.005
   0.28571429  0.66666667  0.00000000       0.003
  -0.66666667 -0.28571429  0.95238095       0.005
  -0.61904762 -0.23809524  0.90476190       0.005
  -0.57142857 -0.19047619  0.85714286       0.005
  -0.52380952 -0.14285714  0.80952381       0.005
  -0.47619048 -0.09523810  0.76190476       0.005
  -0.42857143 -0.04761905  0.71428571       0.005
  -0.38095238  0.00000000  0.66666667       0.003
  -0.71428571 -0.23809524  1.00000000       0.003
  -0.66666667 -0.19047619  0.95238095       0.005
  -0.61904762 -0.14285714  0.90476190       0.005
  -0.57142857 -0.09523810  0.85714286       0.005
  -0.52380952 -0.04761905  0.80952381       0.005
  -0.47619048  0.00000000  0.76190476       0.003
  -0.71428571 -0.14285714  1.00000000       0.003
  -0.66666667 -0.09523810  0.95238095       0.005
  -0.61904762 -0.04761905  0.90476190       0.005
  -0.57142857  0.00000000  0.85714286       0.003
  -0.71428571 -0.04761905  1.00000000       0.003
  -0.66666667  0.00000000  0.95238095       0.003
  -0.61904762 -0.23809524  1.00000000       0.003
  -0.57142857 -0.19047619  0.95238095       0.005
  -0.52380952 -0.14285714  0.90476190       0.005
  -0.61904762 -0.14285714  1.00000000       0.003
  -0.57142857 -0.09523810  0.95238095       0.005
  -0.52380952 -0.04761905  0.90476190       0.005
  -0.47619048  0.00000000  0.85714286       0.003
  -0.61904762 -0.04761905  1.00000000       0.003
  -0.57142857  0.00000000  0.95238095       0.003
  -0.52380952 -0.04761905  1.00000000       0.003
 
 k-points in reciprocal lattice and weights: k-points                                
   0.00000000  0.00000000  0.00000000       0.000
   0.04761905  0.00000000  0.00000000       0.001
   0.09523810  0.00000000  0.00000000       0.001
   0.14285714  0.00000000  0.00000000       0.001
   0.19047619  0.00000000  0.00000000       0.001
   0.23809524  0.00000000  0.00000000       0.001
   0.28571429  0.00000000  0.00000000       0.001
   0.33333333  0.00000000  0.00000000       0.001
   0.38095238  0.00000000  0.00000000       0.001
   0.42857143  0.00000000  0.00000000       0.001
   0.47619048  0.00000000  0.00000000       0.001
   0.04761905  0.04761905  0.00000000       0.001
   0.09523810  0.04761905  0.00000000       0.003
   0.14285714  0.04761905  0.00000000       0.003
   0.19047619  0.04761905  0.00000000       0.003
   0.23809524  0.04761905  0.00000000       0.003
   0.28571429  0.04761905  0.00000000       0.003
   0.33333333  0.04761905  0.00000000       0.003
   0.38095238  0.04761905  0.00000000       0.003
   0.42857143  0.04761905  0.00000000       0.003
   0.47619048  0.04761905  0.00000000       0.003
  -0.47619048  0.04761905  0.00000000       0.003
  -0.42857143  0.04761905  0.00000000       0.003
  -0.38095238  0.04761905  0.00000000       0.003
  -0.33333333  0.04761905  0.00000000       0.003
  -0.28571429  0.04761905  0.00000000       0.003
  -0.23809524  0.04761905  0.00000000       0.003
  -0.19047619  0.04761905  0.00000000       0.003
  -0.14285714  0.04761905  0.00000000       0.003
  -0.09523810  0.04761905  0.00000000       0.003
  -0.04761905  0.04761905  0.00000000       0.001
   0.09523810  0.09523810  0.00000000       0.001
   0.14285714  0.09523810  0.00000000       0.003
   0.19047619  0.09523810  0.00000000       0.003
   0.23809524  0.09523810  0.00000000       0.003
   0.28571429  0.09523810  0.00000000       0.003
   0.33333333  0.09523810  0.00000000       0.003
   0.38095238  0.09523810  0.00000000       0.003
   0.42857143  0.09523810  0.00000000       0.003
   0.47619048  0.09523810  0.00000000       0.003
  -0.47619048  0.09523810  0.00000000       0.003
  -0.42857143  0.09523810  0.00000000       0.003
  -0.38095238  0.09523810  0.00000000       0.003
  -0.33333333  0.09523810  0.00000000       0.003
  -0.28571429  0.09523810  0.00000000       0.003
  -0.23809524  0.09523810  0.00000000       0.003
  -0.19047619  0.09523810  0.00000000       0.003
  -0.14285714  0.09523810  0.00000000       0.003
  -0.09523810  0.09523810  0.00000000       0.001
   0.14285714  0.14285714  0.00000000       0.001
   0.19047619  0.14285714  0.00000000       0.003
   0.23809524  0.14285714  0.00000000       0.003
   0.28571429  0.14285714  0.00000000       0.003
   0.33333333  0.14285714  0.00000000       0.003
   0.38095238  0.14285714  0.00000000       0.003
   0.42857143  0.14285714  0.00000000       0.003
   0.47619048  0.14285714  0.00000000       0.003
  -0.47619048  0.14285714  0.00000000       0.003
  -0.42857143  0.14285714  0.00000000       0.003
  -0.38095238  0.14285714  0.00000000       0.003
  -0.33333333  0.14285714  0.00000000       0.003
  -0.28571429  0.14285714  0.00000000       0.003
  -0.23809524  0.14285714  0.00000000       0.003
  -0.19047619  0.14285714  0.00000000       0.003
  -0.14285714  0.14285714  0.00000000       0.001
   0.19047619  0.19047619  0.00000000       0.001
   0.23809524  0.19047619  0.00000000       0.003
   0.28571429  0.19047619  0.00000000       0.003
   0.33333333  0.19047619  0.00000000       0.003
   0.38095238  0.19047619  0.00000000       0.003
   0.42857143  0.19047619  0.00000000       0.003
   0.47619048  0.19047619  0.00000000       0.003
  -0.47619048  0.19047619  0.00000000       0.003
  -0.42857143  0.19047619  0.00000000       0.003
  -0.38095238  0.19047619  0.00000000       0.003
  -0.33333333  0.19047619  0.00000000       0.003
  -0.28571429  0.19047619  0.00000000       0.003
  -0.23809524  0.19047619  0.00000000       0.003
  -0.19047619  0.19047619  0.00000000       0.001
   0.23809524  0.23809524  0.00000000       0.001
   0.28571429  0.23809524  0.00000000       0.003
   0.33333333  0.23809524  0.00000000       0.003
   0.38095238  0.23809524  0.00000000       0.003
   0.42857143  0.23809524  0.00000000       0.003
   0.47619048  0.23809524  0.00000000       0.003
  -0.47619048  0.23809524  0.00000000       0.003
  -0.42857143  0.23809524  0.00000000       0.003
  -0.38095238  0.23809524  0.00000000       0.003
  -0.33333333  0.23809524  0.00000000       0.003
  -0.28571429  0.23809524  0.00000000       0.003
  -0.23809524  0.23809524  0.00000000       0.001
   0.28571429  0.28571429  0.00000000       0.001
   0.33333333  0.28571429  0.00000000       0.003
   0.38095238  0.28571429  0.00000000       0.003
   0.42857143  0.28571429  0.00000000       0.003
   0.47619048  0.28571429  0.00000000       0.003
  -0.47619048  0.28571429  0.00000000       0.003
  -0.42857143  0.28571429  0.00000000       0.003
  -0.38095238  0.28571429  0.00000000       0.003
  -0.33333333  0.28571429  0.00000000       0.003
  -0.28571429  0.28571429  0.00000000       0.001
   0.33333333  0.33333333  0.00000000       0.001
   0.38095238  0.33333333  0.00000000       0.003
   0.42857143  0.33333333  0.00000000       0.003
   0.47619048  0.33333333  0.00000000       0.003
  -0.47619048  0.33333333  0.00000000       0.003
  -0.42857143  0.33333333  0.00000000       0.003
  -0.38095238  0.33333333  0.00000000       0.003
  -0.33333333  0.33333333  0.00000000       0.001
   0.38095238  0.38095238  0.00000000       0.001
   0.42857143  0.38095238  0.00000000       0.003
   0.47619048  0.38095238  0.00000000       0.003
  -0.47619048  0.38095238  0.00000000       0.003
  -0.42857143  0.38095238  0.00000000       0.003
  -0.38095238  0.38095238  0.00000000       0.001
   0.42857143  0.42857143  0.00000000       0.001
   0.47619048  0.42857143  0.00000000       0.003
  -0.47619048  0.42857143  0.00000000       0.003
  -0.42857143  0.42857143  0.00000000       0.001
   0.47619048  0.47619048  0.00000000       0.001
  -0.47619048  0.47619048  0.00000000       0.001
   0.14285714  0.09523810  0.04761905       0.003
   0.19047619  0.09523810  0.04761905       0.005
   0.23809524  0.09523810  0.04761905       0.005
   0.28571429  0.09523810  0.04761905       0.005
   0.33333333  0.09523810  0.04761905       0.005
   0.38095238  0.09523810  0.04761905       0.005
   0.42857143  0.09523810  0.04761905       0.005
   0.47619048  0.09523810  0.04761905       0.005
  -0.47619048  0.09523810  0.04761905       0.005
   0.19047619  0.14285714  0.04761905       0.003
   0.23809524  0.14285714  0.04761905       0.005
   0.28571429  0.14285714  0.04761905       0.005
   0.33333333  0.14285714  0.04761905       0.005
   0.38095238  0.14285714  0.04761905       0.005
   0.42857143  0.14285714  0.04761905       0.005
   0.47619048  0.14285714  0.04761905       0.005
  -0.47619048  0.14285714  0.04761905       0.005
  -0.42857143  0.14285714  0.04761905       0.005
  -0.38095238  0.14285714  0.04761905       0.005
  -0.33333333  0.14285714  0.04761905       0.005
  -0.28571429  0.14285714  0.04761905       0.005
  -0.23809524  0.14285714  0.04761905       0.005
  -0.19047619  0.14285714  0.04761905       0.005
  -0.14285714  0.14285714  0.04761905       0.005
  -0.09523810  0.14285714  0.04761905       0.003
   0.23809524  0.19047619  0.04761905       0.003
   0.28571429  0.19047619  0.04761905       0.005
   0.33333333  0.19047619  0.04761905       0.005
   0.38095238  0.19047619  0.04761905       0.005
   0.42857143  0.19047619  0.04761905       0.005
   0.47619048  0.19047619  0.04761905       0.005
  -0.47619048  0.19047619  0.04761905       0.005
  -0.42857143  0.19047619  0.04761905       0.005
  -0.38095238  0.19047619  0.04761905       0.005
  -0.33333333  0.19047619  0.04761905       0.005
  -0.28571429  0.19047619  0.04761905       0.005
  -0.23809524  0.19047619  0.04761905       0.005
  -0.19047619  0.19047619  0.04761905       0.005
  -0.14285714  0.19047619  0.04761905       0.003
   0.28571429  0.23809524  0.04761905       0.003
   0.33333333  0.23809524  0.04761905       0.005
   0.38095238  0.23809524  0.04761905       0.005
   0.42857143  0.23809524  0.04761905       0.005
   0.47619048  0.23809524  0.04761905       0.005
  -0.47619048  0.23809524  0.04761905       0.005
  -0.42857143  0.23809524  0.04761905       0.005
  -0.38095238  0.23809524  0.04761905       0.005
  -0.33333333  0.23809524  0.04761905       0.005
  -0.28571429  0.23809524  0.04761905       0.005
  -0.23809524  0.23809524  0.04761905       0.005
  -0.19047619  0.23809524  0.04761905       0.003
   0.33333333  0.28571429  0.04761905       0.003
   0.38095238  0.28571429  0.04761905       0.005
   0.42857143  0.28571429  0.04761905       0.005
   0.47619048  0.28571429  0.04761905       0.005
  -0.47619048  0.28571429  0.04761905       0.005
  -0.42857143  0.28571429  0.04761905       0.005
  -0.38095238  0.28571429  0.04761905       0.005
  -0.33333333  0.28571429  0.04761905       0.005
  -0.28571429  0.28571429  0.04761905       0.005
  -0.23809524  0.28571429  0.04761905       0.003
   0.38095238  0.33333333  0.04761905       0.003
   0.42857143  0.33333333  0.04761905       0.005
   0.47619048  0.33333333  0.04761905       0.005
  -0.47619048  0.33333333  0.04761905       0.005
  -0.42857143  0.33333333  0.04761905       0.005
  -0.38095238  0.33333333  0.04761905       0.005
  -0.33333333  0.33333333  0.04761905       0.005
  -0.28571429  0.33333333  0.04761905       0.003
   0.42857143  0.38095238  0.04761905       0.003
   0.47619048  0.38095238  0.04761905       0.005
  -0.47619048  0.38095238  0.04761905       0.005
  -0.42857143  0.38095238  0.04761905       0.005
  -0.38095238  0.38095238  0.04761905       0.005
  -0.33333333  0.38095238  0.04761905       0.003
   0.47619048  0.42857143  0.04761905       0.003
  -0.47619048  0.42857143  0.04761905       0.005
  -0.42857143  0.42857143  0.04761905       0.005
  -0.38095238  0.42857143  0.04761905       0.003
  -0.47619048  0.47619048  0.04761905       0.003
  -0.42857143  0.47619048  0.04761905       0.003
   0.28571429  0.19047619  0.09523810       0.003
   0.33333333  0.19047619  0.09523810       0.005
   0.38095238  0.19047619  0.09523810       0.005
   0.42857143  0.19047619  0.09523810       0.005
   0.47619048  0.19047619  0.09523810       0.005
  -0.47619048  0.19047619  0.09523810       0.005
  -0.42857143  0.19047619  0.09523810       0.005
   0.33333333  0.23809524  0.09523810       0.003
   0.38095238  0.23809524  0.09523810       0.005
   0.42857143  0.23809524  0.09523810       0.005
   0.47619048  0.23809524  0.09523810       0.005
  -0.47619048  0.23809524  0.09523810       0.005
  -0.42857143  0.23809524  0.09523810       0.005
  -0.38095238  0.23809524  0.09523810       0.005
  -0.33333333  0.23809524  0.09523810       0.005
  -0.28571429  0.23809524  0.09523810       0.005
  -0.23809524  0.23809524  0.09523810       0.005
  -0.19047619  0.23809524  0.09523810       0.005
  -0.14285714  0.23809524  0.09523810       0.003
   0.38095238  0.28571429  0.09523810       0.003
   0.42857143  0.28571429  0.09523810       0.005
   0.47619048  0.28571429  0.09523810       0.005
  -0.47619048  0.28571429  0.09523810       0.005
  -0.42857143  0.28571429  0.09523810       0.005
  -0.38095238  0.28571429  0.09523810       0.005
  -0.33333333  0.28571429  0.09523810       0.005
  -0.28571429  0.28571429  0.09523810       0.005
  -0.23809524  0.28571429  0.09523810       0.005
  -0.19047619  0.28571429  0.09523810       0.003
   0.42857143  0.33333333  0.09523810       0.003
   0.47619048  0.33333333  0.09523810       0.005
  -0.47619048  0.33333333  0.09523810       0.005
  -0.42857143  0.33333333  0.09523810       0.005
  -0.38095238  0.33333333  0.09523810       0.005
  -0.33333333  0.33333333  0.09523810       0.005
  -0.28571429  0.33333333  0.09523810       0.005
  -0.23809524  0.33333333  0.09523810       0.003
   0.47619048  0.38095238  0.09523810       0.003
  -0.47619048  0.38095238  0.09523810       0.005
  -0.42857143  0.38095238  0.09523810       0.005
  -0.38095238  0.38095238  0.09523810       0.005
  -0.33333333  0.38095238  0.09523810       0.005
  -0.28571429  0.38095238  0.09523810       0.003
  -0.47619048  0.42857143  0.09523810       0.003
  -0.42857143  0.42857143  0.09523810       0.005
  -0.38095238  0.42857143  0.09523810       0.005
  -0.33333333  0.42857143  0.09523810       0.003
  -0.42857143  0.47619048  0.09523810       0.003
  -0.38095238  0.47619048  0.09523810       0.003
   0.42857143  0.28571429  0.14285714       0.003
   0.47619048  0.28571429  0.14285714       0.005
  -0.47619048  0.28571429  0.14285714       0.005
  -0.42857143  0.28571429  0.14285714       0.005
  -0.38095238  0.28571429  0.14285714       0.005
   0.47619048  0.33333333  0.14285714       0.003
  -0.47619048  0.33333333  0.14285714       0.005
  -0.42857143  0.33333333  0.14285714       0.005
  -0.38095238  0.33333333  0.14285714       0.005
  -0.33333333  0.33333333  0.14285714       0.005
  -0.28571429  0.33333333  0.14285714       0.005
  -0.23809524  0.33333333  0.14285714       0.005
  -0.19047619  0.33333333  0.14285714       0.003
  -0.47619048  0.38095238  0.14285714       0.003
  -0.42857143  0.38095238  0.14285714       0.005
  -0.38095238  0.38095238  0.14285714       0.005
  -0.33333333  0.38095238  0.14285714       0.005
  -0.28571429  0.38095238  0.14285714       0.005
  -0.23809524  0.38095238  0.14285714       0.003
  -0.42857143  0.42857143  0.14285714       0.003
  -0.38095238  0.42857143  0.14285714       0.005
  -0.33333333  0.42857143  0.14285714       0.005
  -0.28571429  0.42857143  0.14285714       0.003
  -0.38095238  0.47619048  0.14285714       0.003
  -0.33333333  0.47619048  0.14285714       0.003
  -0.42857143  0.38095238  0.19047619       0.003
  -0.38095238  0.38095238  0.19047619       0.005
  -0.33333333  0.38095238  0.19047619       0.005
  -0.38095238  0.42857143  0.19047619       0.003
  -0.33333333  0.42857143  0.19047619       0.005
  -0.28571429  0.42857143  0.19047619       0.005
  -0.23809524  0.42857143  0.19047619       0.003
  -0.33333333  0.47619048  0.19047619       0.003
  -0.28571429  0.47619048  0.19047619       0.003
  -0.28571429  0.47619048  0.23809524       0.003
 
 position of ions in fractional coordinates (direct lattice) 
   0.00000000  0.00000000  0.00000000
 
 position of ions in cartesian coordinates  (Angst):
   0.00000000  0.00000000  0.00000000
 


--------------------------------------------------------------------------------------------------------


 k-point  1 :   0.0000 0.0000 0.0000  plane waves:     137
 k-point  2 :   0.0476 0.0000 0.0000  plane waves:     128
 k-point  3 :   0.0952 0.0000 0.0000  plane waves:     128
 k-point  4 :   0.1429 0.0000 0.0000  plane waves:     128
 k-point  5 :   0.1905 0.0000 0.0000  plane waves:     129
 k-point  6 :   0.2381 0.0000 0.0000  plane waves:     132
 k-point  7 :   0.2857 0.0000 0.0000  plane waves:     132
 k-point  8 :   0.3333 0.0000 0.0000  plane waves:     126
 k-point  9 :   0.3810 0.0000 0.0000  plane waves:     123
 k-point 10 :   0.4286 0.0000 0.0000  plane waves:     123
 k-point 11 :   0.4762 0.0000 0.0000  plane waves:     120
 k-point 12 :   0.0476 0.0476 0.0000  plane waves:     125
 k-point 13 :   0.0952 0.0476 0.0000  plane waves:     127
 k-point 14 :   0.1429 0.0476 0.0000  plane waves:     125
 k-point 15 :   0.1905 0.0476 0.0000  plane waves:     127
 k-point 16 :   0.2381 0.0476 0.0000  plane waves:     127
 k-point 17 :   0.2857 0.0476 0.0000  plane waves:     131
 k-point 18 :   0.3333 0.0476 0.0000  plane waves:     131
 k-point 19 :   0.3810 0.0476 0.0000  plane waves:     127
 k-point 20 :   0.4286 0.0476 0.0000  plane waves:     126
 k-point 21 :   0.4762 0.0476 0.0000  plane waves:     125
 k-point 22 :  -0.4762 0.0476 0.0000  plane waves:     122
 k-point 23 :  -0.4286 0.0476 0.0000  plane waves:     126
 k-point 24 :  -0.3810 0.0476 0.0000  plane waves:     126
 k-point 25 :  -0.3333 0.0476 0.0000  plane waves:     128
 k-point 26 :  -0.2857 0.0476 0.0000  plane waves:     131
 k-point 27 :  -0.2381 0.0476 0.0000  plane waves:     131
 k-point 28 :  -0.1905 0.0476 0.0000  plane waves:     128
 k-point 29 :  -0.1429 0.0476 0.0000  plane waves:     126
 k-point 30 :  -0.0952 0.0476 0.0000  plane waves:     125
 k-point 31 :  -0.0476 0.0476 0.0000  plane waves:     127
 k-point 32 :   0.0952 0.0952 0.0000  plane waves:     125
 k-point 33 :   0.1429 0.0952 0.0000  plane waves:     125
 k-point 34 :   0.1905 0.0952 0.0000  plane waves:     131
 k-point 35 :   0.2381 0.0952 0.0000  plane waves:     129
 k-point 36 :   0.2857 0.0952 0.0000  plane waves:     132
 k-point 37 :   0.3333 0.0952 0.0000  plane waves:     130
 k-point 38 :   0.3810 0.0952 0.0000  plane waves:     128
 k-point 39 :   0.4286 0.0952 0.0000  plane waves:     125
 k-point 40 :   0.4762 0.0952 0.0000  plane waves:     127
 k-point 41 :  -0.4762 0.0952 0.0000  plane waves:     127
 k-point 42 :  -0.4286 0.0952 0.0000  plane waves:     126
 k-point 43 :  -0.3810 0.0952 0.0000  plane waves:     124
 k-point 44 :  -0.3333 0.0952 0.0000  plane waves:     127
 k-point 45 :  -0.2857 0.0952 0.0000  plane waves:     131
 k-point 46 :  -0.2381 0.0952 0.0000  plane waves:     131
 k-point 47 :  -0.1905 0.0952 0.0000  plane waves:     130
 k-point 48 :  -0.1429 0.0952 0.0000  plane waves:     128
 k-point 49 :  -0.0952 0.0952 0.0000  plane waves:     127
 k-point 50 :   0.1429 0.1429 0.0000  plane waves:     129
 k-point 51 :   0.1905 0.1429 0.0000  plane waves:     129
 k-point 52 :   0.2381 0.1429 0.0000  plane waves:     130
 k-point 53 :   0.2857 0.1429 0.0000  plane waves:     132
 k-point 54 :   0.3333 0.1429 0.0000  plane waves:     130
 k-point 55 :   0.3810 0.1429 0.0000  plane waves:     128
 k-point 56 :   0.4286 0.1429 0.0000  plane waves:     130
 k-point 57 :   0.4762 0.1429 0.0000  plane waves:     125
 k-point 58 :  -0.4762 0.1429 0.0000  plane waves:     123
 k-point 59 :  -0.4286 0.1429 0.0000  plane waves:     127
 k-point 60 :  -0.3810 0.1429 0.0000  plane waves:     127
 k-point 61 :  -0.3333 0.1429 0.0000  plane waves:     128
 k-point 62 :  -0.2857 0.1429 0.0000  plane waves:     131
 k-point 63 :  -0.2381 0.1429 0.0000  plane waves:     131
 k-point 64 :  -0.1905 0.1429 0.0000  plane waves:     131
 k-point 65 :  -0.1429 0.1429 0.0000  plane waves:     133
 k-point 66 :   0.1905 0.1905 0.0000  plane waves:     129
 k-point 67 :   0.2381 0.1905 0.0000  plane waves:     130
 k-point 68 :   0.2857 0.1905 0.0000  plane waves:     128
 k-point 69 :   0.3333 0.1905 0.0000  plane waves:     130
 k-point 70 :   0.3810 0.1905 0.0000  plane waves:     128
 k-point 71 :   0.4286 0.1905 0.0000  plane waves:     126
 k-point 72 :   0.4762 0.1905 0.0000  plane waves:     125
 k-point 73 :  -0.4762 0.1905 0.0000  plane waves:     123
 k-point 74 :  -0.4286 0.1905 0.0000  plane waves:     125
 k-point 75 :  -0.3810 0.1905 0.0000  plane waves:     125
 k-point 76 :  -0.3333 0.1905 0.0000  plane waves:     129
 k-point 77 :  -0.2857 0.1905 0.0000  plane waves:     129
 k-point 78 :  -0.2381 0.1905 0.0000  plane waves:     131
 k-point 79 :  -0.1905 0.1905 0.0000  plane waves:     131
 k-point 80 :   0.2381 0.2381 0.0000  plane waves:     129
 k-point 81 :   0.2857 0.2381 0.0000  plane waves:     128
 k-point 82 :   0.3333 0.2381 0.0000  plane waves:     128
 k-point 83 :   0.3810 0.2381 0.0000  plane waves:     126
 k-point 84 :   0.4286 0.2381 0.0000  plane waves:     124
 k-point 85 :   0.4762 0.2381 0.0000  plane waves:     122
 k-point 86 :  -0.4762 0.2381 0.0000  plane waves:     123
 k-point 87 :  -0.4286 0.2381 0.0000  plane waves:     125
 k-point 88 :  -0.3810 0.2381 0.0000  plane waves:     125
 k-point 89 :  -0.3333 0.2381 0.0000  plane waves:     126
 k-point 90 :  -0.2857 0.2381 0.0000  plane waves:     128
 k-point 91 :  -0.2381 0.2381 0.0000  plane waves:     129
 k-point 92 :   0.2857 0.2857 0.0000  plane waves:     129
 k-point 93 :   0.3333 0.2857 0.0000  plane waves:     129
 k-point 94 :   0.3810 0.2857 0.0000  plane waves:     128
 k-point 95 :   0.4286 0.2857 0.0000  plane waves:     122
 k-point 96 :   0.4762 0.2857 0.0000  plane waves:     124
 k-point 97 :  -0.4762 0.2857 0.0000  plane waves:     124
 k-point 98 :  -0.4286 0.2857 0.0000  plane waves:     123
 k-point 99 :  -0.3810 0.2857 0.0000  plane waves:     122
 k-point ** :  -0.3333 0.2857 0.0000  plane waves:     122
 k-point ** :  -0.2857 0.2857 0.0000  plane waves:     126
[...]
      1       4.4342      2.00000
      2       6.6096      2.00000
      3       8.0864      2.00091
      4      11.8083      0.00000
      5      18.8973      0.00000
      6      23.5332      0.00000

 k-point   244 :      -0.3333    0.3810    0.0952
  band No.  band energies     occupation 
      1       5.1322      2.00000
      2       5.8307      2.00000
      3       7.6413      2.00000
      4      12.1714      0.00000
      5      19.2765      0.00000
      6      25.2394      0.00000

 k-point   245 :      -0.2857    0.3810    0.0952
  band No.  band energies     occupation 
      1       4.0492      2.00000
      2       6.7722      2.00000
      3       7.5938      2.00000
      4      12.6556      0.00000
      5      19.7527      0.00000
      6      26.4672      0.00000

 k-point   246 :      -0.4762    0.4286    0.0952
  band No.  band energies     occupation 
      1       2.8371      2.00000
      2       8.0287      2.00201
      3      10.6377     -0.13149
      4      11.4071      0.00000
      5      17.6041      0.00000
      6      18.8542      0.00000

 k-point   247 :      -0.4286    0.4286    0.0952
  band No.  band energies     occupation 
      1       3.7993      2.00000
      2       7.2785      2.00000
      3       9.4132      1.85619
      4      11.2255      0.00000
      5      18.1425      0.00000
      6      20.0408      0.00000

 k-point   248 :      -0.3810    0.4286    0.0952
  band No.  band energies     occupation 
      1       4.8539      2.00000
      2       6.6316      2.00000
      3       8.0646      2.00000
      4      11.4018      0.00000
      5      18.4599      0.00000
      6      21.6940      0.00000

 k-point   249 :      -0.3333    0.4286    0.0952
  band No.  band energies     occupation 
      1       5.7963      2.00000
      2       6.0693      2.00000
      3       7.0457      2.00000
      4      11.7238      0.00000
      5      18.8237      0.00000
      6      23.4934      0.00000

 k-point   250 :      -0.4286    0.4762    0.0952
  band No.  band energies     occupation 
      1       4.3722      2.00000
      2       6.2209      2.00000
      3      10.4773      0.16218
      4      11.2328      0.00000
      5      17.4439      0.00000
      6      18.7082      0.00000

 k-point   251 :      -0.3810    0.4762    0.0952
  band No.  band energies     occupation 
      1       5.1448      2.00000
      2       5.8059      2.00000
      3       9.3223      1.91987
      4      11.1402      0.00000
      5      18.0646      0.00000
      6      19.9728      0.00000

 k-point   252 :       0.4286    0.2857    0.1429
  band No.  band energies     occupation 
      1      -0.5155      2.00000
      2      10.8080     -0.23135
      3      11.4578      0.00000
      4      14.9250      0.00000
      5      21.0820      0.00000
      6      21.7603      0.00000

 k-point   253 :       0.4762    0.2857    0.1429
  band No.  band energies     occupation 
      1       0.3072      2.00000
      2       9.3563      1.89806
      3      11.1349     -0.00342
      4      14.0907      0.00000
      5      21.3003      0.00000
      6      22.7092      0.00000

 k-point   254 :      -0.4762    0.2857    0.1429
  band No.  band energies     occupation 
      1       1.2503      2.00000
      2       7.7701      2.00000
      3      11.1446     -0.07402
      4      13.3642      0.00000
      5      21.3357      0.00000
      6      23.3217      0.00000

 k-point   255 :      -0.4286    0.2857    0.1429
  band No.  band energies     occupation 
      1       2.3068      2.00000
      2       6.2698      2.00000
      3      11.2677     -0.06272
      4      12.7694      0.00000
      5      21.4136      0.00000
      6      23.1092      0.00000

 k-point   256 :      -0.3810    0.2857    0.1429
  band No.  band energies     occupation 
      1       3.4357      2.00000
      2       4.9169      2.00000
      3      11.4266     -0.00932
      4      12.3748      0.00000
      5      21.4914      0.00000
      6      22.8689      0.00000

 k-point   257 :       0.4762    0.3333    0.1429
  band No.  band energies     occupation 
      1       0.5818      2.00000
      2      10.1651      0.73975
      3      10.7671     -0.00086
      4      12.8032      0.00000
      5      20.4534      0.00000
      6      21.2661      0.00000

 k-point   258 :      -0.4762    0.3333    0.1429
  band No.  band energies     occupation 
      1       1.4827      2.00000
      2       8.7844      2.07009
      3      10.5046     -0.05969
      4      12.0349      0.00000
      5      20.8016      0.00000
      6      22.3973      0.00000

 k-point   259 :      -0.4286    0.3333    0.1429
  band No.  band energies     occupation 
      1       2.4992      2.00000
      2       7.2786      2.00000
      3      10.4888      0.06180
      4      11.4678      0.00000
      5      20.9674      0.00000
      6      23.6641      0.00000

 k-point   260 :      -0.3810    0.3333    0.1429
  band No.  band energies     occupation 
      1       3.6143      2.00000
      2       5.8726      2.00000
      3      10.3371      0.28709
      4      11.2920      0.00000
      5      21.1906      0.00000
      6      24.0184      0.00000

 k-point   261 :      -0.3333    0.3333    0.1429
  band No.  band energies     occupation 
      1       4.3057      2.00000
      2       5.1067      2.00000
      3      10.0217      0.76218
      4      11.5247      0.00000
      5      21.4881      0.00000
      6      23.8047      0.00000

 k-point   262 :      -0.2857    0.3333    0.1429
  band No.  band energies     occupation 
      1       3.2338      2.00000
      2       6.3215      2.00000
      3       9.7400      1.20063
      4      11.9698      0.00000
      5      21.8472      0.00000
      6      23.5850      0.00000

 k-point   263 :      -0.2381    0.3333    0.1429
  band No.  band energies     occupation 
      1       2.1468      2.00000
      2       7.7488      2.00000
      3       9.5753      1.43110
      4      12.5577      0.00000
      5      22.1922      0.00000
      6      23.3711      0.00000

 k-point   264 :      -0.1905    0.3333    0.1429
  band No.  band energies     occupation 
      1       1.1681      2.00000
      2       9.0397      2.00872
      3       9.7666      0.63152
      4      13.2690      0.00000
      5      22.4355      0.00000
      6      22.6483      0.00000

 k-point   265 :      -0.4762    0.3810    0.1429
  band No.  band energies     occupation 
      1       1.8391      2.00000
      2       9.6827      1.91728
      3       9.9409      0.54819
      4      11.0468      0.00000
      5      19.9863      0.00000
      6      20.8789      0.00000

 k-point   266 :      -0.4286    0.3810    0.1429
  band No.  band energies     occupation 
      1       2.8133      2.00000
      2       8.3465      2.00000
      3       9.5540      1.74617
      4      10.5768     -0.00992
      5      20.4353      0.00000
      6      22.1189      0.00000

 k-point   267 :      -0.3810    0.3810    0.1429
  band No.  band energies     occupation 
      1       3.8948      2.00000
      2       6.9372      2.00000
      3       9.0872      2.05996
      4      10.6011     -0.05620
      5      20.6892      0.00000
      6      23.6826      0.00000

 k-point   268 :      -0.3333    0.3810    0.1429
  band No.  band energies     occupation 
      1       4.9693      2.00000
      2       5.7205      2.00000
      3       8.6401      2.07111
      4      10.8752     -0.07950
      5      21.0045      0.00000
      6      24.8833      0.00000

 k-point   269 :      -0.2857    0.3810    0.1429
  band No.  band energies     occupation 
      1       4.2697      2.00000
      2       6.4670      2.00000
      3       8.3123      2.01472
      4      11.3069     -0.03304
      5      21.4098      0.00000
      6      25.0317      0.00000

 k-point   270 :      -0.2381    0.3810    0.1429
  band No.  band energies     occupation 
      1       3.1585      2.00000
      2       7.5835      2.00000
      3       8.3524      2.00000
      4      11.8701      0.00000
      5      21.8713      0.00000
      6      24.5368      0.00000

 k-point   271 :      -0.4286    0.4286    0.1429
  band No.  band energies     occupation 
      1       3.2481      2.00000
      2       8.3541      2.00000
      3       9.3602      2.03491
      4      10.3277     -0.00754
      5      19.6734      0.00000
      6      20.6136      0.00000

 k-point   272 :      -0.3810    0.4286    0.1429
  band No.  band energies     occupation 
      1       4.2858      2.00000
      2       7.6087      2.00000
      3       8.3301      2.00000
      4      10.1479      0.13643
      5      20.2034      0.00000
      6      21.9312      0.00000

 k-point   273 :      -0.3333    0.4286    0.1429
  band No.  band energies     occupation 
      1       5.3955      2.00000
      2       6.6310      2.00000
      3       7.5049      2.00000
      4      10.3780      0.10986
      5      20.5439      0.00000
      6      23.6284      0.00000

 k-point   274 :      -0.2857    0.4286    0.1429
  band No.  band energies     occupation 
      1       5.3854      2.00000
      2       6.4469      2.00000
      3       7.2946      2.00000
      4      10.7741     -0.09115
      5      20.9380      0.00000
      6      25.1929      0.00000

 k-point   275 :      -0.3810    0.4762    0.1429
  band No.  band energies     occupation 
      1       4.7768      2.00000
      2       6.5982      2.00000
      3       9.1982      2.01505
      4      10.1050      0.04528
      5      19.5020      0.00000
      6      20.4803      0.00000

 k-point   276 :      -0.3333    0.4762    0.1429
  band No.  band energies     occupation 
      1       5.6334      2.00000
      2       6.2322      2.00000
      3       8.1583      2.00000
      4      10.0435      0.32462
      5      20.1315      0.00000
      6      21.8765      0.00000

 k-point   277 :      -0.4286    0.3810    0.1905
  band No.  band energies     occupation 
      1       2.4188      2.00000
      2       8.5549      2.00000
      3       9.2194      2.03852
      4      11.2495     -0.00757
      5      22.1996      0.00000
      6      22.4817      0.00000

 k-point   278 :      -0.3810    0.3810    0.1905
  band No.  band energies     occupation 
      1       3.4676      2.00000
      2       7.3376      2.00000
      3       9.0927      2.06333
      4      10.6263     -0.06795
      5      22.4225      0.00000
      6      23.5317      0.00000

 k-point   279 :      -0.3333    0.3810    0.1905
  band No.  band energies     occupation 
      1       4.5932      2.00000
      2       6.0202      2.00000
      3       9.2279      2.05646
      4      10.2207      0.06821
      5      22.4915      0.00000
      6      23.8195      0.00000

 k-point   280 :      -0.3810    0.4286    0.1905
  band No.  band energies     occupation 
      1       3.8190      2.00000
      2       8.2312      2.00000
      3       8.5171      2.00000
      4       9.6574      0.81630
      5      21.8942      0.00000
      6      22.3862      0.00000

 k-point   281 :      -0.3333    0.4286    0.1905
  band No.  band energies     occupation 
      1       4.9222      2.00000
      2       7.0641      2.00000
      3       8.2742      2.00000
      4       9.3497      1.76311
      5      22.3373      0.00000
      6      23.7286      0.00000

 k-point   282 :      -0.2857    0.4286    0.1905
  band No.  band energies     occupation 
      1       5.6274      2.00000
      2       6.2955      2.00000
      3       7.9910      2.00000
      4       9.5418      1.46528
      5      22.6305      0.00000
      6      24.6956      0.00000

 k-point   283 :      -0.2381    0.4286    0.1905
  band No.  band energies     occupation 
      1       4.5426      2.00000
      2       7.2598      2.00000
      3       7.9646      2.00000
      4       9.9937      0.57755
      5      22.8847      0.00000
      6      24.2640      0.00000

 k-point   284 :      -0.3333    0.4762    0.1905
  band No.  band energies     occupation 
      1       5.3364      2.00000
      2       7.0756      2.00000
      3       8.0693      2.00000
      4       9.1321      2.20876
      5      21.7410      0.00000
      6      22.3170      0.00000

 k-point   285 :      -0.2857    0.4762    0.1905
  band No.  band energies     occupation 
      1       6.2847      2.00000
      2       6.5622      2.00000
      3       7.3425      2.00000
      4       9.1163      2.01716
      5      22.3064      0.00000
      6      23.7634      0.00000

 k-point   286 :      -0.2857    0.4762    0.2381
  band No.  band energies     occupation 
      1       6.0262      2.00000
      2       7.0973      2.00000
      3       7.3919      2.00000
      4       8.6371      2.01534
      5      23.6157      0.00000
      6      24.1155      0.00000


--------------------------------------------------------------------------------------------------------


 soft charge-density along one line, spin component           1
         0         1         2         3         4         5         6         7         8         9
 total charge-density along one line
 
 pseudopotential strength for first ion, spin component:           1
 19.010  -0.003  -0.000  -0.000  -0.000   0.000   0.000   0.000
 -0.003   0.006   0.000   0.000   0.000  -0.000  -0.000  -0.000
 -0.000   0.000   4.280  -0.000  -0.000  -0.006   0.000   0.000
 -0.000   0.000  -0.000   4.280  -0.000   0.000  -0.006   0.000
 -0.000   0.000  -0.000  -0.000   4.280   0.000   0.000  -0.006
  0.000  -0.000  -0.006   0.000   0.000   0.005  -0.000  -0.000
  0.000  -0.000   0.000  -0.006   0.000  -0.000   0.005  -0.000
  0.000  -0.000   0.000   0.000  -0.006  -0.000  -0.000   0.005
 total augmentation occupancy for first ion, spin component:           1
  1.771  -0.341   0.000   0.000   0.000   0.000   0.000   0.000
 -0.341   1.115   0.000   0.000   0.000   0.000   0.000   0.000
  0.000   0.000   0.755   0.000   0.000  -0.504  -0.000   0.000
  0.000   0.000  -0.000   0.755   0.000  -0.000  -0.504   0.000
  0.000   0.000   0.000   0.000   0.755   0.000   0.000  -0.504
  0.000   0.000  -0.504  -0.000   0.000   0.435  -0.000   0.000
  0.000   0.000  -0.000  -0.504  -0.000   0.000   0.435   0.000
  0.000   0.000  -0.000  -0.000  -0.504  -0.000   0.000   0.435


------------------------ aborting loop because EDIFF is reached ----------------------------------------


 


 total charge     
 
# of ion     s       p       d       tot
----------------------------------------
  1        0.866   0.710   0.000   1.575
 
    CHARGE:  cpu time    0.01: real time    0.01
    FORLOC:  cpu time    0.00: real time    0.00
    FORNL :  cpu time    0.02: real time    0.02
    STRESS:  cpu time    0.15: real time    0.15
    FORCOR:  cpu time    0.00: real time    0.00
    FORHAR:  cpu time    0.00: real time    0.00
    MIXING:  cpu time    0.00: real time    0.00
    OFIELD:  cpu time    0.00: real time    0.00

  FORCE on cell =-STRESS in cart. coord.  units (eV):
  Direction    XX          YY          ZZ          XY          YZ          ZX
  --------------------------------------------------------------------------------------
  Alpha Z     1.59851     1.59851     1.59851
  Ewald     -45.14259   -45.14259   -45.14259    -0.00000     0.00000    -0.00000
  Hartree     0.17675     0.17675     0.17675    -0.00000    -0.00000    -0.00000
  E(xc)     -13.03056   -13.03056   -13.03056    -0.00000    -0.00000    -0.00000
  Local      -5.81159    -5.81160    -5.81159     0.00005     0.00005     0.00005
  n-local    40.58629    38.64887    40.85272    -0.59360     0.58828     0.96531
  augment    -6.80546    -6.80546    -6.80546    -0.00005    -0.00005    -0.00005
  Kinetic    21.01934    39.92425    24.56563     9.96202    -8.55647   -16.29728
  Fock        0.00000     0.00000     0.00000     0.00000     0.00000     0.00000
  -------------------------------------------------------------------------------------
  Total      -0.48258    -0.48258    -0.48258     0.00000    -0.00000     0.00000
  in kB     -52.13746   -52.13746   -52.13746     0.00000    -0.00000     0.00000
  external pressure =      -52.14 kB  Pullay stress =        0.00 kB


 VOLUME and BASIS-vectors are now :
 -----------------------------------------------------------------------------
  energy-cutoff  :      240.00
  volume of cell :       14.83
      direct lattice vectors                 reciprocal lattice vectors
     1.950000000  1.950000000  0.000000000     0.256410256  0.256410256 -0.256410256
     0.000000000  1.950000000  1.950000000    -0.256410256  0.256410256  0.256410256
     1.950000000  0.000000000  1.950000000     0.256410256 -0.256410256  0.256410256

  length of vectors
     2.757716447  2.757716447  2.757716447     0.444115592  0.444115592  0.444115592


 FORCES acting on ions
    electron-ion (+dipol)            ewald-force                    non-local-force                 convergence-correction
 -----------------------------------------------------------------------------------------------
   0.603E-15 0.381E-15 0.156E-15   0.262E-15 0.141E-15 0.191E-15   0.000E+00 -.827E-23 0.000E+00   0.761E-16 0.754E-16 -.447E-16
 -----------------------------------------------------------------------------------------------
   0.603E-15 0.381E-15 0.156E-15   0.262E-15 0.141E-15 0.191E-15   0.000E+00 -.827E-23 0.000E+00   0.761E-16 0.754E-16 -.447E-16
 
 
 POSITION                                       TOTAL-FORCE (eV/Angst)
 -----------------------------------------------------------------------------------
      0.00000      0.00000      0.00000        -0.000000     -0.000000     -0.000000
 -----------------------------------------------------------------------------------
    total drift:                                0.000000      0.000000      0.000000


--------------------------------------------------------------------------------------------------------



  FREE ENERGIE OF THE ION-ELECTRON SYSTEM (eV)
  ---------------------------------------------------
  free  energy   TOTEN  =        -5.47422719 eV

  energy  without entropy=       -5.47422719  energy(sigma->0) =       -5.47422719
 


--------------------------------------------------------------------------------------------------------


    POTLOK:  cpu time    0.00: real time    0.00


--------------------------------------------------------------------------------------------------------


 writing wavefunctions
     LOOP+:  cpu time    3.15: real time    3.20
    4ORBIT:  cpu time    0.00: real time    0.00
 


 total charge     
 
# of ion     s       p       d       tot
----------------------------------------
  1        0.866   0.710   0.000   1.575
 
 BZINTS: Fermi energy:  9.852842;  4.000000 electrons
         Band energy:  16.882514;  BLOECHL correction: -0.059235

 total amount of memory used by VASP on root node    37240. kBytes
========================================================================

   base      :      30000. kBytes
   nonl-proj :       2509. kBytes
   fftplans  :        296. kBytes
   grid      :        451. kBytes
   one-center:          3. kBytes
   wavefun   :       3981. kBytes
 
  
  
 General timing and accounting informations for this job:
 ========================================================
  
                  Total CPU time used (sec):        3.692
                            User time (sec):        3.634
                          System time (sec):        0.058
                         Elapsed time (sec):        3.861
  
                   Maximum memory used (kb):       37988.
                   Average memory used (kb):           0.
  
                          Minor page faults:         4592
                          Major page faults:            0
                 Voluntary context switches:          411
