PROCAR lm decomposed
# of k-points:  286         # of bands:   6         # of ions:   1

 k-point    1 :    0.00000000 0.00000000 0.00000000     weight = 0.00010798

band   1 # energy   -4.36456989 # occ.  2.00000000
 
ion      s     py     pz     px    dxy    dyz    dz2    dxz    dx2    tot
  1  0.388  0.000  0.000  0.000  0.000  0.000  0.000  0.000  0.000  0.388
 
band   2 # energy   20.47939189 # occ.  0.00000000
 
ion      s     py     pz     px    dxy    dyz    dz2    dxz    dx2    tot
  1  0.000  0.226  0.234  0.226  0.000  0.000  0.000  0.000  0.000  0.686
 
band   3 # energy   20.47961786 # occ.  0.00000000
 
ion      s     py     pz     px    dxy    dyz    dz2    dxz    dx2    tot
  1  0.000  0.353  0.003  0.330  0.000  0.000  0.000  0.000  0.000  0.686
 
band   4 # energy   20.47962155 # occ.  0.00000000
 
ion      s     py     pz     px    dxy    dyz    dz2    dxz    dx2    tot
  1  0.000  0.107  0.449  0.130  0.000  0.000  0.000  0.000  0.000  0.686
 
band   5 # energy   21.72496620 # occ.  0.00000000
 
ion      s     py     pz     px    dxy    dyz    dz2    dxz    dx2    tot
  1  0.000  0.000  0.000  0.000  0.000  0.000  0.000  0.000  0.000  0.000
 
band   6 # energy   21.72514885 # occ.  0.00000000
 
ion      s     py     pz     px    dxy    dyz    dz2    dxz    dx2    tot
  1  0.000  0.000  0.000  0.000  0.000  0.000  0.000  0.000  0.000  0.000
 

 k-point    2 :    0.04761905 0.00000000 0.00000000     weight = 0.00086384

band   1 # energy   -4.29956097 # occ.  2.00000000
 
ion      s     py     pz     px    dxy    dyz    dz2    dxz    dx2    tot
  1  0.387  0.001  0.001  0.001  0.000  0.000  0.000  0.000  0.000  0.389
 
band   2 # energy   19.31020370 # occ.  0.00000000
 
ion      s     py     pz     px    dxy    dyz    dz2    dxz    dx2    tot
  1  0.009  0.152  0.152  0.152  0.000  0.000  0.000  0.000  0.000  0.467
 
band   3 # energy   20.16265695 # occ.  0.00000000
 
ion      s     py     pz     px    dxy    dyz    dz2    dxz    dx2    tot
  1  0.000  0.096  0.383  0.096  0.000  0.000  0.000  0.000  0.000  0.574
 
band   4 # energy   20.16287188 # occ.  0.00000000
 
ion      s     py     pz     px    dxy    dyz    dz2    dxz    dx2    tot
  1  0.000  0.287  0.000  0.287  0.000  0.000  0.000  0.000  0.000  0.574
 
band   5 # energy   22.15948767 # occ.  0.00000000
 
ion      s     py     pz     px    dxy    dyz    dz2    dxz    dx2    tot
  1  0.000  0.019  0.077  0.019  0.000  0.000  0.000  0.000  0.000  0.116
 
band   6 # energy   22.15966941 # occ.  0.00000000
 
ion      s     py     pz     px    dxy    dyz    dz2    dxz    dx2    tot
  1  0.000  0.058  0.000  0.058  0.000  0.000  0.000  0.000  0.000  0.116
 

 k-point    3 :    0.09523810 0.00000000 0.00000000     weight = 0.00086384

band   1 # energy   -4.10541701 # occ.  2.00000000
 
ion      s     py     pz     px    dxy    dyz    dz2    dxz    dx2    tot
  1  0.382  0.002  0.002  0.002  0.000  0.000  0.000  0.000  0.000  0.389
 
band   2 # energy   17.44330536 # occ.  0.00000000
 
ion      s     py     pz     px    dxy    dyz    dz2    dxz    dx2    tot
  1  0.025  0.124  0.124  0.124  0.000  0.000  0.000  0.000  0.000  0.397
 
band   3 # energy   19.63892893 # occ.  0.00000000
 
ion      s     py     pz     px    dxy    dyz    dz2    dxz    dx2    tot
  1  0.000  0.085  0.338  0.085  0.000  0.000  0.000  0.000  0.000  0.507
 
band   4 # energy   19.63914835 # occ.  0.00000000
 
ion      s     py     pz     px    dxy    dyz    dz2    dxz    dx2    tot
  1  0.000  0.254  0.000  0.254  0.000  0.000  0.000  0.000  0.000  0.507
 
band   5 # energy   22.77200823 # occ.  0.00000000
 
ion      s     py     pz     px    dxy    dyz    dz2    dxz    dx2    tot
  1  0.030  0.078  0.079  0.075  0.000  0.000  0.000  0.000  0.000  0.262
 
band   6 # energy   22.89022597 # occ.  0.00000000
 
ion      s     py     pz     px    dxy    dyz    dz2    dxz    dx2    tot
  1  0.000  0.115  0.055  0.020  0.000  0.000  0.000  0.000  0.000  0.190
 

 k-point    4 :    0.14285714 0.00000000 0.00000000     weight = 0.00086384

band   1 # energy   -3.78230746 # occ.  2.00000000
 
ion      s     py     pz     px    dxy    dyz    dz2    dxz    dx2    tot
  1  0.375  0.005  0.005  0.005  0.000  0.000  0.000  0.000  0.000  0.390
 
band   2 # energy   15.46473625 # occ.  0.00000000
 
ion      s     py     pz     px    dxy    dyz    dz2    dxz    dx2    tot
  1  0.043  0.111  0.111  0.111  0.000  0.000  0.000  0.000  0.000  0.376
 
band   3 # energy   19.15349227 # occ.  0.00000000
 
ion      s     py     pz     px    dxy    dyz    dz2    dxz    dx2    tot
  1  0.000  0.082  0.326  0.081  0.000  0.000  0.000  0.000  0.000  0.489
 
band   4 # energy   19.15371441 # occ.  0.00000000
 
ion      s     py     pz     px    dxy    dyz    dz2    dxz    dx2    tot
  1  0.000  0.244  0.000  0.245  0.000  0.000  0.000  0.000  0.000  0.489
 
band   5 # energy   22.85208402 # occ.  0.00000000
 
ion      s     py     pz     px    dxy    dyz    dz2    dxz    dx2    tot
  1  0.064  0.065  0.065  0.065  0.000  0.000  0.000  0.000  0.000  0.260
 
band   6 # energy   23.57091781 # occ.  0.00000000
 
ion      s     py     pz     px    dxy    dyz    dz2    dxz    dx2    tot
  1  0.000  0.140  0.062  0.016  0.000  0.000  0.000  0.000  0.000  0.218
 

 k-point    5 :    0.19047619 0.00000000 0.00000000     weight = 0.00086384

band   1 # energy   -3.33098492 # occ.  2.00000000
 
ion      s     py     pz     px    dxy    dyz    dz2    dxz    dx2    tot
  1  0.365  0.009  0.009  0.009  0.000  0.000  0.000  0.000  0.000  0.391
 
band   2 # energy   13.48640047 # occ.  0.00000000
 
ion      s     py     pz     px    dxy    dyz    dz2    dxz    dx2    tot
  1  0.063  0.102  0.102  0.102  0.000  0.000  0.000  0.000  0.000  0.368
 
band   3 # energy   18.75089388 # occ.  0.00000000
 
ion      s     py     pz     px    dxy    dyz    dz2    dxz    dx2    tot
  1  0.000  0.082  0.326  0.082  0.000  0.000  0.000  0.000  0.000  0.490
 
band   4 # energy   18.75111852 # occ.  0.00000000
 
ion      s     py     pz     px    dxy    dyz    dz2    dxz    dx2    tot
  1  0.000  0.245  0.000  0.245  0.000  0.000  0.000  0.000  0.000  0.490
 
band   5 # energy   22.79369493 # occ.  0.00000000
 
ion      s     py     pz     px    dxy    dyz    dz2    dxz    dx2    tot
  1  0.101  0.050  0.050  0.050  0.000  0.000  0.000  0.000  0.000  0.251
 
band   6 # energy   23.76143581 # occ.  0.00000000
 
ion      s     py     pz     px    dxy    dyz    dz2    dxz    dx2    tot
  1  0.000  0.047  0.129  0.020  0.000  0.000  0.000  0.000  0.000  0.196
 

 k-point    6 :    0.23809524 0.00000000 0.00000000     weight = 0.00086384

band   1 # energy   -2.75238256 # occ.  2.00000000
 
ion      s     py     pz     px    dxy    dyz    dz2    dxz    dx2    tot
  1  0.353  0.013  0.013  0.013  0.000  0.000  0.000  0.000  0.000  0.392
 
band   2 # energy   11.56736008 # occ. -0.00535491
 
ion      s     py     pz     px    dxy    dyz    dz2    dxz    dx2    tot
  1  0.083  0.095  0.095  0.095  0.000  0.000  0.000  0.000  0.000  0.367
 
band   3 # energy   18.44069799 # occ.  0.00000000
 
ion      s     py     pz     px    dxy    dyz    dz2    dxz    dx2    tot
  1  0.000  0.083  0.334  0.084  0.000  0.000  0.000  0.000  0.000  0.500
 
band   4 # energy   18.44092128 # occ.  0.00000000
 
ion      s     py     pz     px    dxy    dyz    dz2    dxz    dx2    tot
  1  0.000  0.250  0.000  0.250  0.000  0.000  0.000  0.000  0.000  0.501
 
band   5 # energy   22.71497630 # occ.  0.00000000
 
ion      s     py     pz     px    dxy    dyz    dz2    dxz    dx2    tot
  1  0.136  0.036  0.035  0.036  0.000  0.000  0.000  0.000  0.000  0.243
 
band   6 # energy   23.29644262 # occ.  0.00000000
 
ion      s     py     pz     px    dxy    dyz    dz2    dxz    dx2    tot
  1  0.000  0.012  0.077  0.056  0.000  0.000  0.000  0.000  0.000  0.145
 

 k-point    7 :    0.28571429 0.00000000 0.00000000     weight = 0.00086384

band   1 # energy   -2.04783851 # occ.  2.00000000
 
ion      s     py     pz     px    dxy    dyz    dz2    dxz    dx2    tot
  1  0.340  0.018  0.018  0.018  0.000  0.000  0.000  0.000  0.000  0.394
 
band   2 # energy    9.72924115 # occ.  1.15032468
 
ion      s     py     pz     px    dxy    dyz    dz2    dxz    dx2    tot
  1  0.104  0.089  0.089  0.089  0.000  0.000  0.000  0.000  0.000  0.370
 
band   3 # energy   18.22245473 # occ.  0.00000000
 
ion      s     py     pz     px    dxy    dyz    dz2    dxz    dx2    tot
  1  0.000  0.086  0.346  0.086  0.000  0.000  0.000  0.000  0.000  0.518
 
band   4 # energy   18.22267214 # occ.  0.00000000
 
ion      s     py     pz     px    dxy    dyz    dz2    dxz    dx2    tot
  1  0.000  0.259  0.000  0.259  0.000  0.000  0.000  0.000  0.000  0.518
 
band   5 # energy   22.61200321 # occ.  0.00000000
 
ion      s     py     pz     px    dxy    dyz    dz2    dxz    dx2    tot
  1  0.000  0.052  0.055  0.003  0.000  0.000  0.000  0.000  0.000  0.111
 
band   6 # energy   22.62655886 # occ.  0.00000000
 
ion      s     py     pz     px    dxy    dyz    dz2    dxz    dx2    tot
  1  0.010  0.011  0.010  0.086  0.000  0.000  0.000  0.000  0.000  0.119
 

 k-point    8 :    0.33333333 0.00000000 0.00000000     weight = 0.00086384

band   1 # energy   -1.21819866 # occ.  2.00000000
 
ion      s     py     pz     px    dxy    dyz    dz2    dxz    dx2    tot
  1  0.326  0.024  0.024  0.024  0.000  0.000  0.000  0.000  0.000  0.397
 
band   2 # energy    7.98590916 # occ.  2.00000000
 
ion      s     py     pz     px    dxy    dyz    dz2    dxz    dx2    tot
  1  0.124  0.083  0.083  0.083  0.000  0.000  0.000  0.000  0.000  0.372
 
band   3 # energy   18.09342922 # occ.  0.00000000
 
ion      s     py     pz     px    dxy    dyz    dz2    dxz    dx2    tot
  1  0.000  0.091  0.363  0.091  0.000  0.000  0.000  0.000  0.000  0.544
 
band   4 # energy   18.09361527 # occ.  0.00000000
 
ion      s     py     pz     px    dxy    dyz    dz2    dxz    dx2    tot
  1  0.000  0.272  0.000  0.272  0.000  0.000  0.000  0.000  0.000  0.544
 
band   5 # energy   21.94090174 # occ.  0.00000000
 
ion      s     py     pz     px    dxy    dyz    dz2    dxz    dx2    tot
  1  0.000  0.013  0.053  0.013  0.000  0.000  0.000  0.000  0.000  0.079
 
band   6 # energy   21.94170704 # occ.  0.00000000
 
ion      s     py     pz     px    dxy    dyz    dz2    dxz    dx2    tot
  1  0.000  0.039  0.000  0.039  0.000  0.000  0.000  0.000  0.000  0.079
 

 k-point    9 :    0.38095238 0.00000000 0.00000000     weight = 0.00086384

band   1 # energy   -0.26754009 # occ.  2.00000000
 
ion      s     py     pz     px    dxy    dyz    dz2    dxz    dx2    tot
  1  0.314  0.029  0.029  0.029  0.000  0.000  0.000  0.000  0.000  0.401
 
band   2 # energy    6.34433181 # occ.  2.00000000
 
ion      s     py     pz     px    dxy    dyz    dz2    dxz    dx2    tot
  1  0.141  0.078  0.078  0.078  0.000  0.000  0.000  0.000  0.000  0.374
 
band   3 # energy   18.03103385 # occ.  0.00000000
 
ion      s     py     pz     px    dxy    dyz    dz2    dxz    dx2    tot
  1  0.000  0.096  0.382  0.096  0.000  0.000  0.000  0.000  0.000  0.573
 
band   4 # energy   18.03120365 # occ.  0.00000000
 
ion      s     py     pz     px    dxy    dyz    dz2    dxz    dx2    tot
  1  0.000  0.287  0.000  0.287  0.000  0.000  0.000  0.000  0.000  0.573
 
band   5 # energy   21.37251976 # occ.  0.00000000
 
ion      s     py     pz     px    dxy    dyz    dz2    dxz    dx2    tot
  1  0.000  0.008  0.034  0.008  0.000  0.000  0.000  0.000  0.000  0.051
 
band   6 # energy   21.37331858 # occ.  0.00000000
 
ion      s     py     pz     px    dxy    dyz    dz2    dxz    dx2    tot
  1  0.000  0.025  0.000  0.025  0.000  0.000  0.000  0.000  0.000  0.051
 

 k-point   10 :    0.42857143 0.00000000 0.00000000     weight = 0.00086384

band   1 # energy    0.79570521 # occ.  2.00000000
 
ion      s     py     pz     px    dxy    dyz    dz2    dxz    dx2    tot
  1  0.309  0.032  0.032  0.032  0.000  0.000  0.000  0.000  0.000  0.405
 
band   2 # energy    4.81742284 # occ.  2.00000000
 
ion      s     py     pz     px    dxy    dyz    dz2    dxz    dx2    tot
  1  0.149  0.075  0.075  0.075  0.000  0.000  0.000  0.000  0.000  0.373
 
band   3 # energy   18.01744780 # occ.  0.00000000
 
ion      s     py     pz     px    dxy    dyz    dz2    dxz    dx2    tot
  1  0.000  0.101  0.402  0.101  0.000  0.000  0.000  0.000  0.000  0.604
 
band   4 # energy   18.01759598 # occ.  0.00000000
 
ion      s     py     pz     px    dxy    dyz    dz2    dxz    dx2    tot
  1  0.000  0.302  0.000  0.302  0.000  0.000  0.000  0.000  0.000  0.604
 
band   5 # energy   20.95675978 # occ.  0.00000000
 
ion      s     py     pz     px    dxy    dyz    dz2    dxz    dx2    tot
  1  0.000  0.004  0.015  0.004  0.000  0.000  0.000  0.000  0.000  0.023
 
band   6 # energy   20.95756535 # occ.  0.00000000
 
ion      s     py     pz     px    dxy    dyz    dz2    dxz    dx2    tot
  1  0.000  0.011  0.000  0.011  0.000  0.000  0.000  0.000  0.000  0.023
 

 k-point   11 :    0.47619048 0.00000000 0.00000000     weight = 0.00086384

band   1 # energy    1.92600068 # occ.  2.00000000
 
ion      s     py     pz     px    dxy    dyz    dz2    dxz    dx2    tot
  1  0.358  0.023  0.023  0.023  0.000  0.000  0.000  0.000  0.000  0.427
 
band   2 # energy    3.45533206 # occ.  2.00000000
 
ion      s     py     pz     px    dxy    dyz    dz2    dxz    dx2    tot
  1  0.102  0.084  0.084  0.084  0.000  0.000  0.000  0.000  0.000  0.354
 
band   3 # energy   18.02299390 # occ.  0.00000000
 
ion      s     py     pz     px    dxy    dyz    dz2    dxz    dx2    tot
  1  0.000  0.104  0.416  0.104  0.000  0.000  0.000  0.000  0.000  0.625
 
band   4 # energy   18.02313002 # occ.  0.00000000
 
ion      s     py     pz     px    dxy    dyz    dz2    dxz    dx2    tot
  1  0.000  0.312  0.000  0.312  0.000  0.000  0.000  0.000  0.000  0.625
 
band   5 # energy   20.73471448 # occ.  0.00000000
 
ion      s     py     pz     px    dxy    dyz    dz2    dxz    dx2    tot
  1  0.000  0.000  0.002  0.000  0.000  0.000  0.000  0.000  0.000  0.003
 
band   6 # energy   20.73552657 # occ.  0.00000000
 
ion      s     py     pz     px    dxy    dyz    dz2    dxz    dx2    tot
  1  0.000  0.001  0.000  0.001  0.000  0.000  0.000  0.000  0.000  0.003
 

 k-point   12 :    0.04761905 0.04761905 0.00000000     weight = 0.00064788

band   1 # energy   -4.27789117 # occ.  2.00000000
 
ion      s     py     pz     px    dxy    dyz    dz2    dxz    dx2    tot
  1  0.387  0.002  0.000  0.000  0.000  0.000  0.000  0.000  0.000  0.389
 
band   2 # energy   19.54035654 # occ.  0.00000000
 
ion      s     py     pz     px    dxy    dyz    dz2    dxz    dx2    tot
  1  0.000  0.000  0.245  0.245  0.000  0.000  0.000  0.000  0.000  0.489
 
band   3 # energy   19.54051541 # occ.  0.00000000
 
ion      s     py     pz     px    dxy    dyz    dz2    dxz    dx2    tot
  1  0.000  0.000  0.245  0.245  0.000  0.000  0.000  0.000  0.000  0.489
 
band   4 # energy   20.27377228 # occ.  0.00000000
 
ion      s     py     pz     px    dxy    dyz    dz2    dxz    dx2    tot
  1  0.019  0.667  0.000  0.000  0.000  0.000  0.000  0.000  0.000  0.687
 
band   5 # energy   21.26526970 # occ.  0.00000000
 
ion      s     py     pz     px    dxy    dyz    dz2    dxz    dx2    tot
  1  0.000  0.000  0.000  0.000  0.000  0.000  0.000  0.000  0.000  0.000
 
band   6 # energy   22.82502044 # occ.  0.00000000
 
ion      s     py     pz     px    dxy    dyz    dz2    dxz    dx2    tot
  1  0.000  0.000  0.003  0.197  0.000  0.000  0.000  0.000  0.000  0.200
 

 k-point   13 :    0.09523810 0.04761905 0.00000000     weight = 0.00259151

band   1 # energy   -4.12694212 # occ.  2.00000000
 
ion      s     py     pz     px    dxy    dyz    dz2    dxz    dx2    tot
  1  0.383  0.005  0.001  0.001  0.000  0.000  0.000  0.000  0.000  0.389
 
band   2 # energy   18.08838246 # occ.  0.00000000
 
ion      s     py     pz     px    dxy    dyz    dz2    dxz    dx2    tot
  1  0.016  0.079  0.160  0.160  0.000  0.000  0.000  0.000  0.000  0.415
 
band   3 # energy   18.93343688 # occ.  0.00000000
 
ion      s     py     pz     px    dxy    dyz    dz2    dxz    dx2    tot
  1  0.000  0.000  0.230  0.230  0.000  0.000  0.000  0.000  0.000  0.461
 
band   4 # energy   20.08177460 # occ.  0.00000000
 
ion      s     py     pz     px    dxy    dyz    dz2    dxz    dx2    tot
  1  0.023  0.503  0.034  0.034  0.000  0.000  0.000  0.000  0.000  0.593
 
band   5 # energy   21.36831880 # occ.  0.00000000
 
ion      s     py     pz     px    dxy    dyz    dz2    dxz    dx2    tot
  1  0.000  0.045  0.046  0.046  0.000  0.000  0.000  0.000  0.000  0.137
 
band   6 # energy   23.41897522 # occ.  0.00000000
 
ion      s     py     pz     px    dxy    dyz    dz2    dxz    dx2    tot
  1  0.012  0.018  0.095  0.097  0.000  0.000  0.000  0.000  0.000  0.222
 

 k-point   14 :    0.14285714 0.04761905 0.00000000     weight = 0.00259151

band   1 # energy   -3.84679885 # occ.  2.00000000
 
ion      s     py     pz     px    dxy    dyz    dz2    dxz    dx2    tot
  1  0.377  0.009  0.002  0.002  0.000  0.000  0.000  0.000  0.000  0.390
 
band   2 # energy   16.16378835 # occ.  0.00000000
 
ion      s     py     pz     px    dxy    dyz    dz2    dxz    dx2    tot
  1  0.035  0.087  0.130  0.130  0.000  0.000  0.000  0.000  0.000  0.382
 
band   3 # energy   18.40619299 # occ.  0.00000000
 
ion      s     py     pz     px    dxy    dyz    dz2    dxz    dx2    tot
  1  0.000  0.000  0.227  0.227  0.000  0.000  0.000  0.000  0.000  0.454
 
band   4 # energy   19.65282718 # occ.  0.00000000
 
ion      s     py     pz     px    dxy    dyz    dz2    dxz    dx2    tot
  1  0.025  0.426  0.034  0.034  0.000  0.000  0.000  0.000  0.000  0.519
 
band   5 # energy   21.99595100 # occ.  0.00000000
 
ion      s     py     pz     px    dxy    dyz    dz2    dxz    dx2    tot
  1  0.000  0.079  0.088  0.088  0.000  0.000  0.000  0.000  0.000  0.257
 
band   6 # energy   23.68936182 # occ.  0.00000000
 
ion      s     py     pz     px    dxy    dyz    dz2    dxz    dx2    tot
  1  0.039  0.035  0.063  0.063  0.000  0.000  0.000  0.000  0.000  0.200
 

 k-point   15 :    0.19047619 0.04761905 0.00000000     weight = 0.00259151

band   1 # energy   -3.43826006 # occ.  2.00000000
 
ion      s     py     pz     px    dxy    dyz    dz2    dxz    dx2    tot
  1  0.368  0.014  0.005  0.005  0.000  0.000  0.000  0.000  0.000  0.391
 
band   2 # energy   14.18482928 # occ.  0.00000000
 
ion      s     py     pz     px    dxy    dyz    dz2    dxz    dx2    tot
  1  0.054  0.084  0.115  0.115  0.000  0.000  0.000  0.000  0.000  0.368
 
band   3 # energy   17.97519161 # occ.  0.00000000
 
ion      s     py     pz     px    dxy    dyz    dz2    dxz    dx2    tot
  1  0.000  0.000  0.228  0.228  0.000  0.000  0.000  0.000  0.000  0.456
 
band   4 # energy   19.22473426 # occ.  0.00000000
 
ion      s     py     pz     px    dxy    dyz    dz2    dxz    dx2    tot
  1  0.029  0.401  0.039  0.039  0.000  0.000  0.000  0.000  0.000  0.507
 
band   5 # energy   22.39094532 # occ.  0.00000000
 
ion      s     py     pz     px    dxy    dyz    dz2    dxz    dx2    tot
  1  0.006  0.080  0.094  0.094  0.000  0.000  0.000  0.000  0.000  0.275
 
band   6 # energy   23.67509672 # occ.  0.00000000
 
ion      s     py     pz     px    dxy    dyz    dz2    dxz    dx2    tot
  1  0.058  0.037  0.043  0.043  0.000  0.000  0.000  0.000  0.000  0.182
 

 k-point   16 :    0.23809524 0.04761905 0.00000000     weight = 0.00259151

band   1 # energy   -2.90208147 # occ.  2.00000000
 
ion      s     py     pz     px    dxy    dyz    dz2    dxz    dx2    tot
  1  0.356  0.019  0.008  0.008  0.000  0.000  0.000  0.000  0.000  0.392
 
band   2 # energy   12.24993845 # occ.  0.00000000
 
ion      s     py     pz     px    dxy    dyz    dz2    dxz    dx2    tot
  1  0.075  0.080  0.107  0.106  0.000  0.000  0.000  0.000  0.000  0.368
 
band   3 # energy   17.64663446 # occ.  0.00000000
 
ion      s     py     pz     px    dxy    dyz    dz2    dxz    dx2    tot
  1  0.000  0.000  0.231  0.231  0.000  0.000  0.000  0.000  0.000  0.463
 
band   4 # energy   18.85683594 # occ.  0.00000000
 
ion      s     py     pz     px    dxy    dyz    dz2    dxz    dx2    tot
  1  0.032  0.395  0.046  0.046  0.000  0.000  0.000  0.000  0.000  0.519
 
band   5 # energy   22.23749773 # occ.  0.00000000
 
ion      s     py     pz     px    dxy    dyz    dz2    dxz    dx2    tot
  1  0.008  0.074  0.051  0.051  0.000  0.000  0.000  0.000  0.000  0.184
 
band   6 # energy   23.43019979 # occ.  0.00000000
 
ion      s     py     pz     px    dxy    dyz    dz2    dxz    dx2    tot
  1  0.084  0.008  0.059  0.059  0.000  0.000  0.000  0.000  0.000  0.210
 

 k-point   17 :    0.28571429 0.04761905 0.00000000     weight = 0.00259151

band   1 # energy   -2.23954416 # occ.  2.00000000
 
ion      s     py     pz     px    dxy    dyz    dz2    dxz    dx2    tot
  1  0.343  0.025  0.013  0.013  0.000  0.000  0.000  0.000  0.000  0.393
 
band   2 # energy   10.38416463 # occ.  0.21891691
 
ion      s     py     pz     px    dxy    dyz    dz2    dxz    dx2    tot
  1  0.095  0.075  0.099  0.099  0.000  0.000  0.000  0.000  0.000  0.369
 
band   3 # energy   17.42069983 # occ.  0.00000000
 
ion      s     py     pz     px    dxy    dyz    dz2    dxz    dx2    tot
  1  0.000  0.000  0.236  0.236  0.000  0.000  0.000  0.000  0.000  0.472
 
band   4 # energy   18.55045411 # occ.  0.00000000
 
ion      s     py     pz     px    dxy    dyz    dz2    dxz    dx2    tot
  1  0.034  0.398  0.055  0.055  0.000  0.000  0.000  0.000  0.000  0.543
 
band   5 # energy   21.67359332 # occ.  0.00000000
 
ion      s     py     pz     px    dxy    dyz    dz2    dxz    dx2    tot
  1  0.004  0.051  0.018  0.018  0.000  0.000  0.000  0.000  0.000  0.092
 
band   6 # energy   23.27394489 # occ.  0.00000000
 
ion      s     py     pz     px    dxy    dyz    dz2    dxz    dx2    tot
  1  0.120  0.000  0.063  0.063  0.000  0.000  0.000  0.000  0.000  0.246
 

 k-point   18 :    0.33333333 0.04761905 0.00000000     weight = 0.00259151

band   1 # energy   -1.45189461 # occ.  2.00000000
 
ion      s     py     pz     px    dxy    dyz    dz2    dxz    dx2    tot
  1  0.329  0.032  0.017  0.017  0.000  0.000  0.000  0.000  0.000  0.395
 
band   2 # energy    8.60821108 # occ.  2.12033589
 
ion      s     py     pz     px    dxy    dyz    dz2    dxz    dx2    tot
  1  0.116  0.070  0.093  0.093  0.000  0.000  0.000  0.000  0.000  0.372
 
band   3 # energy   17.29968188 # occ.  0.00000000
 
ion      s     py     pz     px    dxy    dyz    dz2    dxz    dx2    tot
  1  0.000  0.000  0.242  0.242  0.000  0.000  0.000  0.000  0.000  0.485
 
band   4 # energy   18.28987625 # occ.  0.00000000
 
ion      s     py     pz     px    dxy    dyz    dz2    dxz    dx2    tot
  1  0.035  0.405  0.066  0.066  0.000  0.000  0.000  0.000  0.000  0.572
 
band   5 # energy   21.07980651 # occ.  0.00000000
 
ion      s     py     pz     px    dxy    dyz    dz2    dxz    dx2    tot
  1  0.003  0.026  0.006  0.006  0.000  0.000  0.000  0.000  0.000  0.040
 
band   6 # energy   23.05416886 # occ.  0.00000000
 
ion      s     py     pz     px    dxy    dyz    dz2    dxz    dx2    tot
  1  0.000  0.000  0.065  0.073  0.000  0.000  0.000  0.000  0.000  0.138
 

 k-point   19 :    0.38095238 0.04761905 0.00000000     weight = 0.00259151

band   1 # energy   -0.54099362 # occ.  2.00000000
 
ion      s     py     pz     px    dxy    dyz    dz2    dxz    dx2    tot
  1  0.316  0.038  0.022  0.022  0.000  0.000  0.000  0.000  0.000  0.400
 
band   2 # energy    6.93260614 # occ.  2.00000000
 
ion      s     py     pz     px    dxy    dyz    dz2    dxz    dx2    tot
  1  0.135  0.066  0.087  0.087  0.000  0.000  0.000  0.000  0.000  0.374
 
band   3 # energy   17.27776842 # occ.  0.00000000
 
ion      s     py     pz     px    dxy    dyz    dz2    dxz    dx2    tot
  1  0.000  0.000  0.250  0.250  0.000  0.000  0.000  0.000  0.000  0.501
 
band   4 # energy   18.04663570 # occ.  0.00000000
 
ion      s     py     pz     px    dxy    dyz    dz2    dxz    dx2    tot
  1  0.035  0.410  0.074  0.075  0.000  0.000  0.000  0.000  0.000  0.594
 
band   5 # energy   20.62952732 # occ.  0.00000000
 
ion      s     py     pz     px    dxy    dyz    dz2    dxz    dx2    tot
  1  0.004  0.006  0.001  0.001  0.000  0.000  0.000  0.000  0.000  0.011
 
band   6 # energy   22.37789813 # occ.  0.00000000
 
ion      s     py     pz     px    dxy    dyz    dz2    dxz    dx2    tot
  1  0.000  0.000  0.060  0.060  0.000  0.000  0.000  0.000  0.000  0.121
 

 k-point   20 :    0.42857143 0.04761905 0.00000000     weight = 0.00259151

band   1 # energy    0.48597109 # occ.  2.00000000
 
ion      s     py     pz     px    dxy    dyz    dz2    dxz    dx2    tot
  1  0.307  0.043  0.026  0.026  0.000  0.000  0.000  0.000  0.000  0.403
 
band   2 # energy    5.36641496 # occ.  2.00000000
 
ion      s     py     pz     px    dxy    dyz    dz2    dxz    dx2    tot
  1  0.148  0.062  0.082  0.082  0.000  0.000  0.000  0.000  0.000  0.374
 
band   3 # energy   17.35036760 # occ.  0.00000000
 
ion      s     py     pz     px    dxy    dyz    dz2    dxz    dx2    tot
  1  0.000  0.000  0.260  0.260  0.000  0.000  0.000  0.000  0.000  0.520
 
band   4 # energy   17.79106777 # occ.  0.00000000
 
ion      s     py     pz     px    dxy    dyz    dz2    dxz    dx2    tot
  1  0.033  0.402  0.081  0.081  0.000  0.000  0.000  0.000  0.000  0.596
 
band   5 # energy   20.38568228 # occ.  0.00000000
 
ion      s     py     pz     px    dxy    dyz    dz2    dxz    dx2    tot
  1  0.006  0.000  0.001  0.001  0.000  0.000  0.000  0.000  0.000  0.008
 
band   6 # energy   21.81562505 # occ.  0.00000000
 
ion      s     py     pz     px    dxy    dyz    dz2    dxz    dx2    tot
  1  0.000  0.000  0.052  0.052  0.000  0.000  0.000  0.000  0.000  0.103
 

 k-point   21 :    0.47619048 0.04761905 0.00000000     weight = 0.00259151

band   1 # energy    1.60887406 # occ.  2.00000000
 
ion      s     py     pz     px    dxy    dyz    dz2    dxz    dx2    tot
  1  0.324  0.042  0.024  0.024  0.000  0.000  0.000  0.000  0.000  0.415
 
band   2 # energy    3.93455327 # occ.  2.00000000
 
ion      s     py     pz     px    dxy    dyz    dz2    dxz    dx2    tot
  1  0.133  0.065  0.083  0.083  0.000  0.000  0.000  0.000  0.000  0.365
 
band   3 # energy   17.50736215 # occ.  0.00000000
 
ion      s     py     pz     px    dxy    dyz    dz2    dxz    dx2    tot
  1  0.000  0.000  0.272  0.272  0.000  0.000  0.000  0.000  0.000  0.544
 
band   4 # energy   17.51904337 # occ.  0.00000000
 
ion      s     py     pz     px    dxy    dyz    dz2    dxz    dx2    tot
  1  0.031  0.378  0.082  0.083  0.000  0.000  0.000  0.000  0.000  0.574
 
band   5 # energy   20.35639198 # occ.  0.00000000
 
ion      s     py     pz     px    dxy    dyz    dz2    dxz    dx2    tot
  1  0.009  0.008  0.006  0.006  0.000  0.000  0.000  0.000  0.000  0.030
 
band   6 # energy   21.37729518 # occ.  0.00000000
 
ion      s     py     pz     px    dxy    dyz    dz2    dxz    dx2    tot
  1  0.000  0.000  0.041  0.041  0.000  0.000  0.000  0.000  0.000  0.081
 

 k-point   22 :   -0.47619048 0.04761905 0.00000000     weight = 0.00259151

band   1 # energy    2.28718317 # occ.  2.00000000
 
ion      s     py     pz     px    dxy    dyz    dz2    dxz    dx2    tot
  1  0.431  0.002  0.010  0.010  0.000  0.000  0.000  0.000  0.000  0.452
 
band   2 # energy    3.17909487 # occ.  2.00000000
 
ion      s     py     pz     px    dxy    dyz    dz2    dxz    dx2    tot
  1  0.028  0.107  0.097  0.097  0.000  0.000  0.000  0.000  0.000  0.330
 
band   3 # energy   17.26354087 # occ.  0.00000000
 
ion      s     py     pz     px    dxy    dyz    dz2    dxz    dx2    tot
  1  0.028  0.349  0.083  0.083  0.000  0.000  0.000  0.000  0.000  0.544
 
band   4 # energy   17.73580866 # occ.  0.00000000
 
ion      s     py     pz     px    dxy    dyz    dz2    dxz    dx2    tot
  1  0.000  0.000  0.288  0.288  0.000  0.000  0.000  0.000  0.000  0.575
 
band   5 # energy   20.55172731 # occ.  0.00000000
 
ion      s     py     pz     px    dxy    dyz    dz2    dxz    dx2    tot
  1  0.011  0.022  0.014  0.014  0.000  0.000  0.000  0.000  0.000  0.060
 
band   6 # energy   21.09979156 # occ.  0.00000000
 
ion      s     py     pz     px    dxy    dyz    dz2    dxz    dx2    tot
  1  0.000  0.000  0.026  0.026  0.000  0.000  0.000  0.000  0.000  0.051
 

 k-point   23 :   -0.42857143 0.04761905 0.00000000     weight = 0.00259151

band   1 # energy    1.22772725 # occ.  2.00000000
 
ion      s     py     pz     px    dxy    dyz    dz2    dxz    dx2    tot
  1  0.312  0.022  0.038  0.038  0.000  0.000  0.000  0.000  0.000  0.409
 
band   2 # energy    4.39288005 # occ.  2.00000000
 
ion      s     py     pz     px    dxy    dyz    dz2    dxz    dx2    tot
  1  0.145  0.089  0.068  0.068  0.000  0.000  0.000  0.000  0.000  0.371
 
band   3 # energy   17.05588189 # occ.  0.00000000
 
ion      s     py     pz     px    dxy    dyz    dz2    dxz    dx2    tot
  1  0.026  0.322  0.084  0.084  0.000  0.000  0.000  0.000  0.000  0.516
 
band   4 # energy   18.00234350 # occ.  0.00000000
 
ion      s     py     pz     px    dxy    dyz    dz2    dxz    dx2    tot
  1  0.000  0.000  0.301  0.301  0.000  0.000  0.000  0.000  0.000  0.602
 
band   5 # energy   20.90163802 # occ.  0.00000000
 
ion      s     py     pz     px    dxy    dyz    dz2    dxz    dx2    tot
  1  0.011  0.033  0.021  0.021  0.000  0.000  0.000  0.000  0.000  0.087
 
band   6 # energy   20.97213461 # occ.  0.00000000
 
ion      s     py     pz     px    dxy    dyz    dz2    dxz    dx2    tot
  1  0.000  0.000  0.012  0.012  0.000  0.000  0.000  0.000  0.000  0.024
 

 k-point   24 :   -0.38095238 0.04761905 0.00000000     weight = 0.00259151
