 running on    1 total cores
 distrk:  each k-point on    1 cores,    1 groups
 distr:  one band on    1 cores,    1 groups
 using from now: INCAR     
 vasp.5.3.5 31Mar14 (build Feb  5 2015 19:39:53) complex                        
  
 POSCAR found :  1 types and       1 ions
 scaLAPACK will be used
 LDA part: xc-table for Ceperly-Alder, standard interpolation
 POSCAR, INCAR and KPOINTS ok, starting setup
 WARNING: small aliasing (wrap around) errors must be expected
 FFT: planning ...
 WAVECAR not read
 entering main loop
       N       E                     dE             d eps       ncg     rms          rms(c)
DAV:   1    -0.400310506730E+01   -0.40031E+01   -0.11907E+03  3882   0.282E+02
DAV:   2    -0.548646464870E+01   -0.14834E+01   -0.14256E+01  4992   0.253E+01
DAV:   3    -0.549698532322E+01   -0.10521E-01   -0.10514E-01  4044   0.207E+00
DAV:   4    -0.549699465608E+01   -0.93329E-05   -0.93750E-05  5064   0.605E-02
DAV:   5    -0.549699466015E+01   -0.40630E-08   -0.45036E-08  3708   0.929E-04    0.751E-01
DAV:   6    -0.548215691522E+01    0.14838E-01   -0.52582E-03  3756   0.405E-01    0.441E-01
DAV:   7    -0.547425224165E+01    0.79047E-02   -0.10147E-02  3666   0.561E-01    0.276E-02
DAV:   8    -0.547422719429E+01    0.25047E-04   -0.35540E-05  3504   0.531E-02
   1 F= -.54742272E+01 E0= -.54742272E+01  d E =0.000000E+00
 writing wavefunctions
