fcc Si                                  
   4.70000000000000     
     0.445088    0.445088    0.000000
     0.000000    0.445088    0.445088
     0.445088    0.000000    0.445088
   Si
     1
Direct
  0.000000  0.000000  0.000000
 
   24   24   24
 -3.0676     -2.2613     -.12910      2.5971      5.0578      6.6107      7.0429      6.5747      5.6864      4.8336    
  4.1800      3.7767      3.6413      3.7767      4.1800      4.8336      5.6864      6.5747      7.0429      6.6107    
  5.0578      2.5971     -.12910     -2.2613     -2.2613     -.79429      1.6189      4.1681      6.0969      6.9867    
  6.8623      6.0982      5.1933      4.4385      3.9125      3.6456      3.6456      3.9125      4.4384      5.1933    
  6.0983      6.8623      6.9867      6.0970      4.1682      1.6189     -.79431     -2.2613     -.12910      1.6189    
  3.8195      5.7401      6.8467      6.9873      6.3870      5.4880      4.6656      4.0407      3.6570      3.5284    
  3.6570      4.0406      4.6656      5.4880      6.3871      6.9874      6.8468      5.7401      3.8196      1.6189    
 -.12906     -.79431      2.5971      4.1681      5.7401      6.7785      7.0211      6.5481      5.6954      4.8419    
  4.1486      3.6712      3.4306      3.4306      3.6712      4.1486      4.8419      5.6954      6.5482      7.0212    
  6.7786      5.7402      4.1682      2.5972      1.6189      1.6189      5.0578      6.0969      6.8467      7.0211    
  6.5985      5.8016      4.9531      4.2260      3.6839      3.3548      3.2451      3.3548      3.6839      4.2259    
  4.9530      5.8016      6.5985      7.0212      6.8468      6.0971      5.0579      4.1682      3.8196      4.1682    
  6.6107      6.9867      6.9873      6.5481      5.8016      4.9910      4.2661      3.6922      3.3028      3.1080    
  3.1081      3.3028      3.6922      4.2661      4.9910      5.8016      6.5481      6.9874      6.9868      6.6108    
  6.0971      5.7402      5.7401      6.0970      7.0429      6.8623      6.3870      5.6954      4.9531      4.2661    
  3.6950      3.2762      3.0240      2.9402      3.0241      3.2763      3.6951      4.2661      4.9531      5.6953    
  6.3870      6.8623      7.0430      6.9868      6.8468      6.7786      6.8468      6.9867      6.5747      6.0982    
  5.4880      4.8419      4.2260      3.6922      3.2762      2.9957      2.8555      2.8556      2.9958      3.2763    
  3.6923      4.2260      4.8420      5.4880      6.0982      6.5747      6.8623      6.9874      7.0212      7.0212    
  6.9874      6.8623      5.6864      5.1933      4.6656      4.1486      3.6839      3.3028      3.0240      2.8555    
  2.7994      2.8555      3.0240      3.3028      3.6840      4.1487      4.6657      5.1934      5.6864      6.0982    
  6.3870      6.5481      6.5985      6.5482      6.3871      6.0983      4.8336      4.4385      4.0407      3.6712    
  3.3548      3.1080      2.9402      2.8556      2.8555      2.9401      3.1079      3.3548      3.6712      4.0407    
  4.4385      4.8337      5.1934      5.4880      5.6953      5.8016      5.8016      5.6954      5.4880      5.1933    
  4.1800      3.9125      3.6570      3.4306      3.2451      3.1081      3.0241      2.9958      3.0240      3.1079    
  3.2450      3.4305      3.6570      3.9125      4.1801      4.4385      4.6657      4.8420      4.9531      4.9910    
  4.9530      4.8419      4.6656      4.4384      3.7767      3.6456      3.5284      3.4306      3.3548      3.3028    
  3.2763      3.2763      3.3028      3.3548      3.4305      3.5283      3.6455      3.7767      3.9125      4.0407    
  4.1487      4.2260      4.2661      4.2661      4.2259      4.1486      4.0406      3.9125      3.6413      3.6456    
  3.6570      3.6712      3.6839      3.6922      3.6951      3.6923      3.6840      3.6712      3.6570      3.6455    
  3.6412      3.6455      3.6570      3.6712      3.6840      3.6923      3.6951      3.6922      3.6839      3.6712    
  3.6570      3.6456      3.7767      3.9125      4.0406      4.1486      4.2259      4.2661      4.2661      4.2260    
  4.1487      4.0407      3.9125      3.7767      3.6455      3.5283      3.4305      3.3548      3.3028      3.2763    
  3.2763      3.3028      3.3548      3.4306      3.5284      3.6456      4.1800      4.4384      4.6656      4.8419    
  4.9530      4.9910      4.9531      4.8420      4.6657      4.4385      4.1801      3.9125      3.6570      3.4305    
  3.2450      3.1079      3.0240      2.9958      3.0241      3.1081      3.2451      3.4306      3.6570      3.9125    
  4.8336      5.1933      5.4880      5.6954      5.8016      5.8016      5.6953      5.4880      5.1934      4.8337    
  4.4385      4.0407      3.6712      3.3548      3.1079      2.9401      2.8555      2.8556      2.9402      3.1080    
  3.3548      3.6712      4.0407      4.4385      5.6864      6.0983      6.3871      6.5482      6.5985      6.5481    
  6.3870      6.0982      5.6864      5.1934      4.6657      4.1487      3.6840      3.3028      3.0240      2.8555    
  2.7994      2.8555      3.0240      3.3028      3.6839      4.1486      4.6656      5.1933      6.5747      6.8623    
  6.9874      7.0212      7.0212      6.9874      6.8623      6.5747      6.0982      5.4880      4.8420      4.2260    
  3.6923      3.2763      2.9958      2.8556      2.8555      2.9957      3.2762      3.6922      4.2260      4.8419    
  5.4880      6.0982      7.0429      6.9867      6.8468      6.7786      6.8468      6.9868      7.0430      6.8623    
  6.3870      5.6953      4.9531      4.2661      3.6951      3.2763      3.0241      2.9402      3.0240      3.2762    
  3.6950      4.2661      4.9531      5.6954      6.3870      6.8623      6.6107      6.0970      5.7401      5.7402    
  6.0971      6.6108      6.9868      6.9874      6.5481      5.8016      4.9910      4.2661      3.6922      3.3028    
  3.1081      3.1080      3.3028      3.6922      4.2661      4.9910      5.8016      6.5481      6.9873      6.9867    
  5.0578      4.1682      3.8196      4.1682      5.0579      6.0971      6.8468      7.0212      6.5985      5.8016    
  4.9530      4.2259      3.6839      3.3548      3.2451      3.3548      3.6839      4.2260      4.9531      5.8016    
  6.5985      7.0211      6.8467      6.0969      2.5971      1.6189      1.6189      2.5972      4.1682      5.7402    
  6.7786      7.0212      6.5482      5.6954      4.8419      4.1486      3.6712      3.4306      3.4306      3.6712    
  4.1486      4.8419      5.6954      6.5481      7.0211      6.7785      5.7401      4.1681     -.12910     -.79431    
 -.12906      1.6189      3.8196      5.7401      6.8468      6.9874      6.3871      5.4880      4.6656      4.0406    
  3.6570      3.5284      3.6570      4.0407      4.6656      5.4880      6.3870      6.9873      6.8467      5.7401    
  3.8195      1.6189     -2.2613     -2.2613     -.79431      1.6189      4.1682      6.0970      6.9867      6.8623    
  6.0983      5.1933      4.4384      3.9125      3.6456      3.6456      3.9125      4.4385      5.1933      6.0982    
  6.8623      6.9867      6.0969      4.1681      1.6189     -.79429     -2.2613     -.79426      1.6189      4.1682    
  6.0969      6.9867      6.8623      6.0983      5.1933      4.4385      3.9125      3.6456      3.6456      3.9125    
  4.4385      5.1934      6.0983      6.8623      6.9867      6.0970      4.1682      1.6188     -.79436     -2.2614    
 -.79426      1.0790      3.4501      5.5444      6.7928      7.0243      6.4632      5.5647      4.7314      4.0964    
  3.7059      3.5750      3.7059      4.0963      4.7314      5.5647      6.4632      7.0243      6.7929      5.5444    
  3.4501      1.0789     -.79436     -1.5057      1.6189      3.4501      5.3212      6.6281      7.0609      6.6846    
  5.8492      4.9751      4.2603      3.7664      3.5169      3.5169      3.7663      4.2603      4.9751      5.8492    
  6.6846      7.0609      6.6282      5.3213      3.4501      1.6189     0.48873     0.48875      4.1682      5.5444    
  6.6281      7.0603      6.7834      6.0244      5.1491      4.3889      3.8191      3.4721      3.3562      3.4720    
  3.8190      4.3889      5.1491      6.0244      6.7834      7.0604      6.6282      5.5445      4.1682      3.0269    
  2.5850      3.0269      6.0969      6.7928      7.0609      6.7834      6.0829      5.2395      4.4706      3.8575    
  3.4399      3.2307      3.2307      3.4399      3.8575      4.4706      5.2394      6.0828      6.7834      7.0609    
  6.7930      6.0971      5.2948      4.7665      4.7665      5.2947      6.9867      7.0243      6.6846      6.0244    
  5.2395      4.4986      3.8776      3.4203      3.1445      3.0528      3.1445      3.4204      3.8776      4.4986    
  5.2394      6.0244      6.6846      7.0243      6.9868      6.6884      6.3593      6.2195      6.3592      6.6883    
  6.8623      6.4632      5.8492      5.1491      4.4706      3.8776      3.4137      3.1006      2.9444      2.9444    
  3.1007      3.4137      3.8776      4.4706      5.1491      5.8492      6.4631      6.8623      7.0163      7.0025    
  6.9485      6.9485      7.0024      7.0163      6.0983      5.5647      4.9751      4.3889      3.8575      3.4203    
  3.1006      2.9079      2.8438      2.9080      3.1007      3.4204      3.8576      4.3890      4.9752      5.5647    
  6.0982      6.5001      6.7415      6.8524      6.8818      6.8525      6.7415      6.5002      5.1933      4.7314    
  4.2603      3.8191      3.4399      3.1445      2.9444      2.8438      2.8438      2.9443      3.1445      3.4399    
  3.8191      4.2604      4.7315      5.1934      5.6069      5.9373      6.1573      6.2637      6.2637      6.1573    
  5.9373      5.6069      4.4385      4.0964      3.7664      3.4721      3.2307      3.0528      2.9444      2.9080    
  2.9443      3.0527      3.2306      3.4720      3.7664      4.0964      4.4385      4.7650      5.0484      5.2658    
  5.4018      5.4479      5.4018      5.2658      5.0484      4.7650      3.9125      3.7059      3.5169      3.3562    
  3.2307      3.1445      3.1007      3.1007      3.1445      3.2306      3.3561      3.5168      3.7059      3.9125    
  4.1216      4.3153      4.4762      4.5907      4.6499      4.6499      4.5906      4.4761      4.3152      4.1215    
  3.6456      3.5750      3.5169      3.4720      3.4399      3.4204      3.4137      3.4204      3.4399      3.4720    
  3.5168      3.5749      3.6455      3.7251      3.8065      3.8806      3.9389      3.9758      3.9883      3.9757    
  3.9388      3.8805      3.8065      3.7252      3.6456      3.7059      3.7663      3.8190      3.8575      3.8776    
  3.8776      3.8576      3.8191      3.7664      3.7059      3.6455      3.5920      3.5489      3.5163      3.4927    
  3.4770      3.4689      3.4689      3.4769      3.4927      3.5163      3.5490      3.5921      3.9125      4.0963    
  4.2603      4.3889      4.4706      4.4986      4.4706      4.3890      4.2604      4.0964      3.9125      3.7251    
  3.5489      3.3945      3.2685      3.1752      3.1178      3.0984      3.1178      3.1753      3.2686      3.3946    
  3.5490      3.7252      4.4385      4.7314      4.9751      5.1491      5.2394      5.2394      5.1491      4.9752    
  4.7315      4.4385      4.1216      3.8065      3.5163      3.2685      3.0748      2.9424      2.8753      2.8753    
  2.9425      3.0749      3.2686      3.5164      3.8065      4.1215      5.1934      5.5647      5.8492      6.0244    
  6.0828      6.0244      5.8492      5.5647      5.1934      4.7650      4.3153      3.8806      3.4927      3.1752    
  2.9424      2.8011      2.7539      2.8012      2.9425      3.1753      3.4927      3.8805      4.3152      4.7650    
  6.0983      6.4632      6.6846      6.7834      6.7834      6.6846      6.4631      6.0982      5.6069      5.0484    
  4.4762      3.9389      3.4770      3.1178      2.8753      2.7539      2.7539      2.8753      3.1178      3.4769    
  3.9388      4.4762      5.0484      5.6069      6.8623      7.0243      7.0609      7.0604      7.0609      7.0243    
  6.8623      6.5001      5.9373      5.2658      4.5907      3.9758      3.4689      3.0984      2.8753      2.8012    
  2.8753      3.0983      3.4688      3.9757      4.5907      5.2659      5.9373      6.5001      6.9867      6.7929    
  6.6282      6.6282      6.7930      6.9868      7.0163      6.7415      6.1573      5.4018      4.6499      3.9883    
  3.4689      3.1178      2.9425      2.9425      3.1178      3.4688      3.9882      4.6499      5.4018      6.1573    
  6.7415      7.0163      6.0970      5.5444      5.3213      5.5445      6.0971      6.6884      7.0025      6.8524    
  6.2637      5.4479      4.6499      3.9757      3.4769      3.1753      3.0749      3.1753      3.4769      3.9757    
  4.6499      5.4480      6.2638      6.8524      7.0024      6.6883      4.1682      3.4501      3.4501      4.1682    
  5.2948      6.3593      6.9485      6.8818      6.2637      5.4018      4.5906      3.9388      3.4927      3.2686    
  3.2686      3.4927      3.9388      4.5907      5.4018      6.2638      6.8818      6.9484      6.3591      5.2946    
  1.6188      1.0789      1.6189      3.0269      4.7665      6.2195      6.9485      6.8525      6.1573      5.2658    
  4.4761      3.8805      3.5163      3.3946      3.5164      3.8805      4.4762      5.2659      6.1573      6.8524    
  6.9484      6.2194      4.7664      3.0269     -.79436     -.79436     0.48873      2.5850      4.7665      6.3592    
  7.0024      6.7415      5.9373      5.0484      4.3152      3.8065      3.5490      3.5490      3.8065      4.3152    
  5.0484      5.9373      6.7415      7.0024      6.3591      4.7664      2.5850     0.48871     -2.2614     -1.5057    
 0.48875      3.0269      5.2947      6.6883      7.0163      6.5002      5.6069      4.7650      4.1215      3.7252    
  3.5921      3.7252      4.1215      4.7650      5.6069      6.5001      7.0163      6.6883      5.2946      3.0269    
 0.48871     -1.5057     -.12915      1.6188      3.8196      5.7401      6.8467      6.9873      6.3870      5.4880    
  4.6656      4.0407      3.6570      3.5284      3.6570      4.0406      4.6656      5.4880      6.3871      6.9874    
  6.8468      5.7401      3.8196      1.6189     -.12909     -.79436      1.6188      3.4501      5.3212      6.6281    
  7.0609      6.6846      5.8492      4.9752      4.2603      3.7664      3.5169      3.5169      3.7663      4.2603    
  4.9751      5.8492      6.6847      7.0610      6.6282      5.3213      3.4501      1.6189     0.48871     0.48868    
  3.8196      5.3212      6.5301      7.0603      6.8409      6.0999      5.2170      4.4456      3.8661      3.5128    
  3.3948      3.5128      3.8660      4.4455      5.2169      6.0999      6.8409      7.0604      6.5301      5.3213    
  3.8196      2.5850      2.1086      2.5850      5.7401      6.6281      7.0603      6.8877      6.2256      5.3705    
  4.5792      3.9455      3.5129      3.2959      3.2959      3.5129      3.9454      4.5791      5.3704      6.2255    
  6.8877      7.0603      6.6282      5.7402      4.7665      4.1370      4.1369      4.7664      6.8467      7.0609    
  6.8409      6.2256      5.4231      4.6490      3.9963      3.5141      3.2229      3.1261      3.2229      3.5141    
  3.9963      4.6490      5.4229      6.2255      6.8408      7.0609      6.8468      6.3592      5.8845      5.6901    
  5.8845      6.3592      6.9873      6.6846      6.0999      5.3705      4.6490      4.0137      3.5150      3.1780    
  3.0098      3.0098      3.1781      3.5150      4.0137      4.6490      5.3704      6.0998      6.6845      6.9873    
  7.0024      6.8528      6.7152      6.7152      6.8528      7.0024      6.3870      5.8492      5.2170      4.5792    
  3.9963      3.5150      3.1628      2.9508      2.8803      2.9508      3.1629      3.5150      3.9963      4.5792    
  5.2169      5.8492      6.3869      6.7414      6.9074      6.9511      6.9538      6.9511      6.9074      6.7415    
  5.4880      4.9752      4.4456      3.9455      3.5141      3.1780      2.9508      2.8369      2.8369      2.9508    
  3.1781      3.5142      3.9456      4.4456      4.9752      5.4880      5.9372      6.2728      6.4767      6.5676    
  6.5676      6.4767      6.2728      5.9373      4.6656      4.2603      3.8661      3.5129      3.2229      3.0098    
  2.8803      2.8369      2.8803      3.0097      3.2229      3.5129      3.8662      4.2604      4.6657      5.0484    
  5.3766      5.6255      5.7786      5.8296      5.7786      5.6255      5.3766      5.0484      4.0407      3.7664    
  3.5128      3.2959      3.1261      3.0098      2.9508      2.9508      3.0097      3.1260      3.2958      3.5128    
  3.7664      4.0407      4.3153      4.5670      4.7746      4.9214      4.9971      4.9970      4.9213      4.7745    
  4.5670      4.3152      3.6570      3.5169      3.3948      3.2959      3.2229      3.1781      3.1629      3.1781    
  3.2229      3.2958      3.3947      3.5168      3.6570      3.8065      3.9533      4.0835      4.1850      4.2489    
  4.2707      4.2488      4.1849      4.0834      3.9532      3.8065      3.5284      3.5169      3.5128      3.5129    
  3.5141      3.5150      3.5150      3.5142      3.5129      3.5128      3.5168      3.5283      3.5489      3.5769    
  3.6076      3.6352      3.6554      3.6658      3.6658      3.6553      3.6351      3.6075      3.5769      3.5490    
  3.6570      3.7663      3.8660      3.9454      3.9963      4.0137      3.9963      3.9456      3.8662      3.7664    
  3.6570      3.5489      3.4508      3.3675      3.3010      3.2520      3.2218      3.2115      3.2218      3.2520    
  3.3010      3.3676      3.4509      3.5490      4.0406      4.2603      4.4455      4.5791      4.6490      4.6490    
  4.5792      4.4456      4.2604      4.0407      3.8065      3.5769      3.3675      3.1895      3.0500      2.9541    
  2.9052      2.9053      2.9542      3.0501      3.1896      3.3676      3.5769      3.8065      4.6656      4.9751    
  5.2169      5.3704      5.4229      5.3704      5.2169      4.9752      4.6657      4.3153      3.9533      3.6076    
  3.3010      3.0500      2.8652      2.7523      2.7144      2.7524      2.8653      3.0501      3.3010      3.6075    
  3.9532      4.3152      5.4880      5.8492      6.0999      6.2255      6.2255      6.0998      5.8492      5.4880    
  5.0484      4.5670      4.0835      3.6352      3.2520      2.9541      2.7523      2.6509      2.6509      2.7524    
  2.9542      3.2520      3.6351      4.0834      4.5670      5.0484      6.3871      6.6847      6.8409      6.8877    
  6.8408      6.6845      6.3869      5.9372      5.3766      4.7746      4.1850      3.6554      3.2218      2.9052    
  2.7144      2.6509      2.7144      2.9052      3.2217      3.6553      4.1849      4.7745      5.3766      5.9373    
  6.9874      7.0610      7.0604      7.0603      7.0609      6.9873      6.7414      6.2728      5.6255      4.9214    
  4.2489      3.6658      3.2115      2.9053      2.7524      2.7524      2.9052      3.2114      3.6658      4.2489    
  4.9214      5.6255      6.2728      6.7416      6.8468      6.6282      6.5301      6.6282      6.8468      7.0024    
  6.9074      6.4767      5.7786      4.9971      4.2707      3.6658      3.2218      2.9542      2.8653      2.9542    
  3.2217      3.6658      4.2707      4.9971      5.7786      6.4768      6.9075      7.0024      5.7401      5.3213    
  5.3213      5.7402      6.3592      6.8528      6.9511      6.5676      5.8296      4.9970      4.2488      3.6553    
  3.2520      3.0501      3.0501      3.2520      3.6553      4.2489      4.9971      5.8297      6.5676      6.9511    
  6.8528      6.3592      3.8196      3.4501      3.8196      4.7665      5.8845      6.7152      6.9538      6.5676    
  5.7786      4.9213      4.1849      3.6351      3.3010      3.1896      3.3010      3.6351      4.1849      4.9214    
  5.7786      6.5676      6.9538      6.7151      5.8845      4.7665      1.6189      1.6189      2.5850      4.1370    
  5.6901      6.7152      6.9511      6.4767      5.6255      4.7745      4.0834      3.6075      3.3676      3.3676    
  3.6075      4.0834      4.7745      5.6255      6.4768      6.9511      6.7151      5.6901      4.1370      2.5850    
 -.12909     0.48871      2.1086      4.1369      5.8845      6.8528      6.9074      6.2728      5.3766      4.5670    
  3.9532      3.5769      3.4509      3.5769      3.9532      4.5670      5.3766      6.2728      6.9075      6.8528    
  5.8845      4.1370      2.1086     0.48875     -.79436     0.48868      2.5850      4.7664      6.3592      7.0024    
  6.7415      5.9373      5.0484      4.3152      3.8065      3.5490      3.5490      3.8065      4.3152      5.0484    
  5.9373      6.7416      7.0024      6.3592      4.7665      2.5850     0.48875     -.79433      2.5971      4.1681    
  5.7401      6.7785      7.0211      6.5481      5.6954      4.8419      4.1486      3.6712      3.4306      3.4306    
  3.6712      4.1486      4.8419      5.6953      6.5482      7.0212      6.7786      5.7402      4.1682      2.5972    
  1.6189      1.6189      4.1681      5.5443      6.6281      7.0603      6.7834      6.0244      5.1491      4.3889    
  3.8191      3.4721      3.3562      3.4720      3.8190      4.3889      5.1491      6.0244      6.7834      7.0604    
  6.6282      5.5445      4.1683      3.0270      2.5851      3.0269      5.7401      6.6281      7.0603      6.8877    
  6.2256      5.3705      4.5792      3.9455      3.5129      3.2959      3.2959      3.5129      3.9454      4.5791    
  5.3704      6.2255      6.8877      7.0604      6.6282      5.7402      4.7665      4.1370      4.1370      4.7664    
  6.7785      7.0603      6.8877      6.2926      5.4862      4.7011      4.0375      3.5467      3.2501      3.1515    
  3.2501      3.5467      4.0374      4.7010      5.4861      6.2924      6.8876      7.0603      6.7786      6.2195    
  5.6902      5.4753      5.6901      6.2194      7.0211      6.7834      6.2256      5.4862      4.7431      4.0858    
  3.5687      3.2190      3.0444      3.0444      3.2191      3.5687      4.0858      4.7430      5.4861      6.2255    
  6.7833      7.0210      6.9484      6.7151      6.5265      6.5265      6.7151      6.9484      6.5481      6.0244    
  5.3705      4.7011      4.0858      3.5763      3.2031      2.9785      2.9039      2.9786      3.2032      3.5763    
  4.0858      4.7011      5.3704      6.0243      6.5480      6.8523      6.9510      6.9379      6.9186      6.9380    
  6.9511      6.8524      5.6954      5.1491      4.5792      4.0375      3.5687      3.2031      2.9562      2.8327    
  2.8327      2.9563      3.2032      3.5687      4.0375      4.5792      5.1491      5.6953      6.1572      6.4766    
  6.6519      6.7216      6.7216      6.6520      6.4768      6.1573      4.8419      4.3889      3.9455      3.5467    
  3.2190      2.9785      2.8327      2.7840      2.8327      2.9785      3.2190      3.5468      3.9456      4.3890    
  4.8419      5.2658      5.6255      5.8917      6.0486      6.0995      6.0487      5.8918      5.6255      5.2658    
  4.1486      3.8191      3.5129      3.2501      3.0444      2.9039      2.8327      2.8327      2.9038      3.0443    
  3.2501      3.5129      3.8192      4.1487      4.4762      4.7746      5.0190      5.1911      5.2795      5.2795    
  5.1911      5.0190      4.7745      4.4762      3.6712      3.4721      3.2959      3.1515      3.0444      2.9786    
  2.9563      2.9785      3.0443      3.1514      3.2958      3.4720      3.6712      3.8806      4.0835      4.2624    
  4.4013      4.4888      4.5186      4.4888      4.4012      4.2622      4.0834      3.8805      3.4306      3.3562    
  3.2959      3.2501      3.2191      3.2032      3.2032      3.2190      3.2501      3.2958      3.3561      3.4305    
  3.5163      3.6075      3.6953      3.7699      3.8235      3.8513      3.8513      3.8234      3.7697      3.6952    
  3.6075      3.5164      3.4306      3.4720      3.5129      3.5467      3.5687      3.5763      3.5687      3.5468    
  3.5129      3.4720      3.4305      3.3945      3.3675      3.3498      3.3389      3.3323      3.3284      3.3271    
  3.3284      3.3322      3.3389      3.3498      3.3676      3.3946      3.6712      3.8190      3.9454      4.0374    
  4.0858      4.0858      4.0375      3.9456      3.8192      3.6712      3.5163      3.3675      3.2344      3.1226    
  3.0355      2.9754      2.9445      2.9446      2.9754      3.0355      3.1227      3.2345      3.3676      3.5163    
  4.1486      4.3889      4.5791      4.7010      4.7430      4.7011      4.5792      4.3890      4.1487      3.8806    
  3.6075      3.3498      3.1226      2.9367      2.7991      2.7145      2.6860      2.7145      2.7992      2.9368    
  3.1227      3.3498      3.6075      3.8805      4.8419      5.1491      5.3704      5.4861      5.4861      5.3704    
  5.1491      4.8419      4.4762      4.0835      3.6953      3.3389      3.0355      2.7991      2.6380      2.5567    
  2.5567      2.6381      2.7991      3.0355      3.3389      3.6952      4.0834      4.4761      5.6953      6.0244    
  6.2255      6.2924      6.2255      6.0243      5.6953      5.2658      4.7746      4.2624      3.7699      3.3323    
  2.9754      2.7145      2.5567      2.5040      2.5567      2.7145      2.9753      3.3322      3.7698      4.2623    
  4.7745      5.2658      6.5482      6.7834      6.8877      6.8876      6.7833      6.5480      6.1572      5.6255    
  5.0190      4.4013      3.8235      3.3284      2.9445      2.6860      2.5567      2.5567      2.6859      2.9445    
  3.3283      3.8234      4.4012      5.0190      5.6255      6.1573      7.0212      7.0604      7.0604      7.0603    
  7.0210      6.8523      6.4766      5.8917      5.1911      4.4888      3.8513      3.3271      2.9446      2.7145    
  2.6381      2.7145      2.9445      3.3270      3.8513      4.4888      5.1911      5.8917      6.4767      6.8525    
  6.7786      6.6282      6.6282      6.7786      6.9484      6.9510      6.6519      6.0486      5.2795      4.5186    
  3.8513      3.3284      2.9754      2.7992      2.7991      2.9753      3.3283      3.8513      4.5187      5.2796    
  6.0487      6.6520      6.9511      6.9485      5.7402      5.5445      5.7402      6.2195      6.7151      6.9379    
  6.7216      6.0995      5.2795      4.4888      3.8234      3.3322      3.0355      2.9368      3.0355      3.3322    
  3.8234      4.4888      5.2796      6.0996      6.7216      6.9380      6.7152      6.2195      4.1682      4.1683    
  4.7665      5.6902      6.5265      6.9186      6.7216      6.0487      5.1911      4.4012      3.7697      3.3389    
  3.1227      3.1227      3.3389      3.7698      4.4012      5.1911      6.0487      6.7216      6.9186      6.5265    
  5.6902      4.7665      2.5972      3.0270      4.1370      5.4753      6.5265      6.9380      6.6520      5.8918    
  5.0190      4.2622      3.6952      3.3498      3.2345      3.3498      3.6952      4.2623      5.0190      5.8917    
  6.6520      6.9380      6.5265      5.4753      4.1370      3.0269      1.6189      2.5851      4.1370      5.6901    
  6.7151      6.9511      6.4768      5.6255      4.7745      4.0834      3.6075      3.3676      3.3676      3.6075    
  4.0834      4.7745      5.6255      6.4767      6.9511      6.7152      5.6902      4.1370      2.5850      1.6189    
  1.6189      3.0269      4.7664      6.2194      6.9484      6.8524      6.1573      5.2658      4.4762      3.8805    
  3.5164      3.3946      3.5163      3.8805      4.4761      5.2658      6.1573      6.8525      6.9485      6.2195    
  4.7665      3.0269      1.6189      1.0790      5.0579      6.0969      6.8467      7.0211      6.5985      5.8016    
  4.9531      4.2259      3.6839      3.3548      3.2451      3.3548      3.6839      4.2259      4.9530      5.8016    
  6.5985      7.0212      6.8468      6.0971      5.0579      4.1682      3.8196      4.1682      6.0969      6.7928    
  7.0608      6.7834      6.0829      5.2395      4.4706      3.8575      3.4399      3.2307      3.2307      3.4399    
  3.8575      4.4706      5.2394      6.0828      6.7834      7.0609      6.7930      6.0971      5.2948      4.7665    
  4.7665      5.2947      6.8467      7.0608      6.8409      6.2256      5.4231      4.6490      3.9963      3.5141    
  3.2229      3.1261      3.2229      3.5141      3.9963      4.6490      5.4229      6.2255      6.8409      7.0609    
  6.8468      6.3592      5.8845      5.6902      5.8845      6.3592      7.0211      6.7834      6.2256      5.4863    
  4.7431      4.0858      3.5687      3.2190      3.0444      3.0444      3.2191      3.5687      4.0858      4.7430    
  5.4861      6.2255      6.7833      7.0210      6.9484      6.7151      6.5265      6.5266      6.7152      6.9484    
  6.5985      6.0829      5.4231      4.7431      4.1167      3.5974      3.2170      2.9881      2.9120      2.9881    
  3.2171      3.5975      4.1167      4.7430      5.4229      6.0827      6.5984      6.8816      6.9536      6.9185    
  6.8906      6.9186      6.9537      6.8818      5.8016      5.2395      4.6490      4.0858      3.5974      3.2164    
  2.9592      2.8305      2.8305      2.9592      3.2165      3.5975      4.0859      4.6490      5.2394      5.8015    
  6.2636      6.5674      6.7215      6.7765      6.7766      6.7216      6.5676      6.2638      4.9531      4.4706    