   1   1   0   0
  0.1830887E+02  0.2958413E-09  0.2958413E-09  0.2958413E-09  0.5000000E-15
  1.000000000000000E-004
  CAR 
 fcc Si                                  
     23.87898758     -6.51697719  301      7.20381159      1.00000000
     -6.517  0.0000E+00  0.0000E+00
     -6.416  0.0000E+00  0.0000E+00
     -6.314  0.0000E+00  0.0000E+00
     -6.213  0.0000E+00  0.0000E+00
     -6.112  0.0000E+00  0.0000E+00
     -6.010  0.0000E+00  0.0000E+00
     -5.909  0.0000E+00  0.0000E+00
     -5.808  0.0000E+00  0.0000E+00
     -5.706  0.4940E-17  0.5005E-18
     -5.605  0.2274E-12  0.2304E-13
     -5.504  0.1397E-08  0.1415E-09
     -5.402  0.1173E-05  0.1190E-06
     -5.301  0.1400E-03  0.1431E-04
     -5.200  0.2551E-02  0.2728E-03
     -5.098  0.8818E-02  0.1166E-02
     -4.997  0.2685E-01  0.3887E-02
     -4.896  0.8829E-01  0.1283E-01
     -4.795  0.7881E-01  0.2082E-01
     -4.693  0.3072E-01  0.2393E-01
     -4.592  0.7863E-01  0.3190E-01
     -4.491  0.1032E+00  0.4235E-01
     -4.389  0.1872E+00  0.6132E-01
     -4.288  0.2092E+00  0.8251E-01
     -4.187  0.5980E-01  0.8857E-01
     -4.085  0.3072E-01  0.9168E-01
     -3.984  0.5803E-01  0.9756E-01
     -3.883  0.1549E+00  0.1133E+00
     -3.781  0.3379E+00  0.1475E+00
     -3.680  0.1987E+00  0.1676E+00
     -3.579  0.9298E-01  0.1770E+00
     -3.477  0.1925E+00  0.1965E+00
     -3.376  0.1818E+00  0.2150E+00
     -3.275  0.2559E+00  0.2409E+00
     -3.173  0.1198E+00  0.2530E+00
     -3.072  0.2862E-01  0.2559E+00
     -2.971  0.8735E-01  0.2648E+00
     -2.869  0.1537E+00  0.2803E+00
     -2.768  0.4534E+00  0.3263E+00
     -2.667  0.4880E+00  0.3757E+00
     -2.566  0.1437E+00  0.3903E+00
     -2.464  0.1384E+00  0.4043E+00
     -2.363  0.1961E+00  0.4242E+00
     -2.262  0.2375E+00  0.4482E+00
     -2.160  0.3324E+00  0.4819E+00
     -2.059  0.1447E+00  0.4966E+00
     -1.958  0.5467E-01  0.5021E+00
     -1.856  0.8095E-01  0.5103E+00
     -1.755  0.2613E+00  0.5368E+00
     -1.654  0.5224E+00  0.5897E+00
     -1.552  0.2623E+00  0.6163E+00
     -1.451  0.2038E+00  0.6369E+00
     -1.350  0.3994E+00  0.6774E+00
     -1.248  0.4189E+00  0.7198E+00
     -1.147  0.5578E+00  0.7764E+00
     -1.046  0.2001E+00  0.7966E+00
     -0.944  0.2182E-01  0.7988E+00
     -0.843  0.5057E-01  0.8040E+00
     -0.742  0.1756E+00  0.8218E+00
     -0.640  0.4614E+00  0.8685E+00
     -0.539  0.3745E+00  0.9064E+00
     -0.438  0.1480E+00  0.9214E+00
     -0.336  0.2958E+00  0.9514E+00
     -0.235  0.4263E+00  0.9946E+00
     -0.134  0.5868E+00  0.1054E+01
     -0.033  0.3153E+00  0.1086E+01
      0.069  0.7253E-01  0.1093E+01
      0.170  0.2775E+00  0.1121E+01
      0.271  0.6243E+00  0.1185E+01
      0.373  0.8202E+00  0.1268E+01
      0.474  0.6110E+00  0.1330E+01
      0.575  0.1157E+00  0.1341E+01
      0.677  0.7358E-02  0.1342E+01
      0.778  0.1005E+00  0.1352E+01
      0.879  0.4839E+00  0.1401E+01
      0.981  0.4154E+00  0.1444E+01
      1.082  0.6558E-01  0.1450E+01
      1.183  0.7542E-01  0.1458E+01
      1.285  0.4323E+00  0.1502E+01
      1.386  0.7806E+00  0.1581E+01
      1.487  0.4758E+00  0.1629E+01
      1.589  0.1047E+00  0.1640E+01
      1.690  0.1675E+00  0.1656E+01
      1.791  0.5147E+00  0.1709E+01
      1.893  0.4253E+00  0.1752E+01
      1.994  0.3320E+00  0.1785E+01
      2.095  0.2695E+00  0.1813E+01
      2.197  0.6919E-01  0.1820E+01
      2.298  0.1029E+00  0.1830E+01
      2.399  0.5290E+00  0.1884E+01
      2.500  0.5806E+00  0.1943E+01
      2.602  0.2763E+00  0.1971E+01
      2.703  0.1640E+00  0.1987E+01
      2.804  0.2416E+00  0.2012E+01
      2.906  0.4153E+00  0.2054E+01
      3.007  0.5064E+00  0.2105E+01
      3.108  0.6652E+00  0.2172E+01
      3.210  0.5997E+00  0.2233E+01
      3.311  0.3642E+00  0.2270E+01
      3.412  0.1137E+00  0.2282E+01
      3.514  0.1337E-01  0.2283E+01
      3.615  0.7183E-01  0.2290E+01
      3.716  0.2512E+00  0.2316E+01
      3.818  0.4169E+00  0.2358E+01
      3.919  0.6650E+00  0.2425E+01
      4.020  0.6507E+00  0.2491E+01
      4.122  0.3705E+00  0.2529E+01
      4.223  0.3945E+00  0.2569E+01
      4.324  0.6505E+00  0.2635E+01
      4.426  0.5905E+00  0.2694E+01
      4.527  0.4659E+00  0.2742E+01
      4.628  0.5684E+00  0.2799E+01
      4.730  0.4037E+00  0.2840E+01
      4.831  0.2690E+00  0.2867E+01
      4.932  0.2320E+00  0.2891E+01
      5.033  0.4201E+00  0.2933E+01
      5.135  0.6709E+00  0.3001E+01
      5.236  0.6680E+00  0.3069E+01
      5.337  0.6607E+00  0.3136E+01
      5.439  0.2883E+00  0.3165E+01
      5.540  0.5440E-01  0.3171E+01
      5.641  0.1982E+00  0.3191E+01
      5.743  0.4084E+00  0.3232E+01
      5.844  0.4683E+00  0.3280E+01
      5.945  0.7098E+00  0.3352E+01
      6.047  0.3673E+00  0.3389E+01
      6.148  0.3851E+00  0.3428E+01
      6.249  0.7776E+00  0.3507E+01
      6.351  0.6907E+00  0.3577E+01
      6.452  0.2778E+00  0.3605E+01
      6.553  0.3055E+00  0.3636E+01
      6.655  0.4544E+00  0.3682E+01
      6.756  0.9266E+00  0.3776E+01
      6.857  0.9449E+00  0.3871E+01
      6.959  0.3212E+00  0.3904E+01
      7.060  0.3903E+00  0.3943E+01
      7.161  0.3522E+00  0.3979E+01
      7.263  0.5817E+00  0.4038E+01
      7.364  0.6351E+00  0.4102E+01
      7.465  0.3769E+00  0.4141E+01
      7.566  0.1511E+00  0.4156E+01
      7.668  0.2545E+00  0.4182E+01
      7.769  0.6774E+00  0.4250E+01
      7.870  0.4980E+00  0.4301E+01
      7.972  0.1450E+00  0.4315E+01
      8.073  0.4913E+00  0.4365E+01
      8.174  0.8114E+00  0.4447E+01
      8.276  0.6033E+00  0.4509E+01
      8.377  0.6257E+00  0.4572E+01
      8.478  0.5036E+00  0.4623E+01
      8.580  0.4778E+00  0.4671E+01
      8.681  0.8548E+00  0.4758E+01
      8.782  0.1022E+01  0.4862E+01
      8.884  0.3922E+00  0.4901E+01
      8.985  0.2158E+00  0.4923E+01
      9.086  0.6421E+00  0.4988E+01
      9.188  0.9582E+00  0.5085E+01
      9.289  0.8542E+00  0.5172E+01
      9.390  0.6705E+00  0.5240E+01
      9.492  0.7363E+00  0.5314E+01
      9.593  0.2816E+00  0.5343E+01
      9.694  0.3611E+00  0.5380E+01
      9.796  0.5537E+00  0.5436E+01
      9.897  0.5187E+00  0.5488E+01
      9.998  0.2522E+00  0.5514E+01
     10.099  0.3327E+00  0.5547E+01
     10.201  0.9230E+00  0.5641E+01
     10.302  0.6620E+00  0.5708E+01
     10.403  0.5670E+00  0.5765E+01
     10.505  0.1129E+01  0.5880E+01
     10.606  0.1456E+01  0.6027E+01
     10.707  0.1130E+01  0.6142E+01
     10.809  0.5273E+00  0.6195E+01
     10.910  0.4771E+00  0.6244E+01
     11.011  0.3859E+00  0.6283E+01
     11.113  0.4009E+00  0.6323E+01
     11.214  0.4272E+00  0.6367E+01
     11.315  0.5430E+00  0.6422E+01
     11.417  0.3720E+00  0.6459E+01
     11.518  0.2232E+00  0.6482E+01
     11.619  0.1789E+00  0.6500E+01
     11.721  0.5024E+00  0.6551E+01
     11.822  0.9460E+00  0.6647E+01
     11.923  0.1100E+01  0.6758E+01
     12.025  0.6973E+00  0.6829E+01
     12.126  0.4912E+00  0.6879E+01
     12.227  0.5332E+00  0.6933E+01
     12.329  0.3436E+00  0.6967E+01
     12.430  0.2450E+00  0.6992E+01
     12.531  0.4191E+00  0.7035E+01
     12.632  0.8538E+00  0.7121E+01
     12.734  0.8126E+00  0.7204E+01
     12.835  0.6488E+00  0.7269E+01
     12.936  0.6545E+00  0.7336E+01
     13.038  0.5843E+00  0.7395E+01
     13.139  0.4602E+00  0.7441E+01
     13.240  0.4337E+00  0.7485E+01
     13.342  0.4757E+00  0.7534E+01
     13.443  0.2253E+00  0.7556E+01
     13.544  0.2524E+00  0.7582E+01
     13.646  0.6387E+00  0.7647E+01
     13.747  0.7392E+00  0.7722E+01
     13.848  0.9713E+00  0.7820E+01
     13.950  0.7772E+00  0.7899E+01
     14.051  0.4916E+00  0.7949E+01
     14.152  0.3173E+00  0.7981E+01
     14.254  0.1920E+00  0.8000E+01
     14.355  0.2539E+00  0.8026E+01
     14.456  0.4545E+00  0.8072E+01
     14.558  0.4890E+00  0.8122E+01
     14.659  0.6038E+00  0.8183E+01
     14.760  0.8654E+00  0.8270E+01
     14.862  0.7957E+00  0.8351E+01
     14.963  0.6112E+00  0.8413E+01
     15.064  0.4769E+00  0.8461E+01
     15.165  0.6377E+00  0.8526E+01
     15.267  0.6928E+00  0.8596E+01
     15.368  0.8030E+00  0.8677E+01
     15.469  0.6196E+00  0.8740E+01
     15.571  0.6185E+00  0.8803E+01
     15.672  0.5065E+00  0.8854E+01
     15.773  0.2681E+00  0.8881E+01
     15.875  0.4150E+00  0.8923E+01
     15.976  0.6538E+00  0.8990E+01
     16.077  0.7251E+00  0.9063E+01
     16.179  0.4112E+00  0.9105E+01
     16.280  0.1553E+00  0.9120E+01
     16.381  0.2107E+00  0.9142E+01
     16.483  0.3769E+00  0.9180E+01
     16.584  0.7131E+00  0.9252E+01
     16.685  0.4063E+00  0.9293E+01
     16.787  0.3389E+00  0.9328E+01
     16.888  0.3029E+00  0.9358E+01
     16.989  0.3930E+00  0.9398E+01
     17.091  0.7883E+00  0.9478E+01
     17.192  0.7092E+00  0.9550E+01
     17.293  0.1223E+01  0.9674E+01
     17.395  0.1580E+01  0.9834E+01
     17.496  0.7663E+00  0.9912E+01
     17.597  0.5450E+00  0.9967E+01
     17.698  0.7328E+00  0.1004E+02
     17.800  0.6324E+00  0.1011E+02
     17.901  0.4143E+00  0.1015E+02
     18.002  0.2907E+00  0.1018E+02
     18.104  0.7150E+00  0.1025E+02
     18.205  0.1074E+01  0.1036E+02
     18.306  0.1138E+01  0.1047E+02
     18.408  0.1030E+01  0.1058E+02
     18.509  0.5121E+00  0.1063E+02
     18.610  0.3595E+00  0.1067E+02
     18.712  0.7590E+00  0.1074E+02
     18.813  0.6088E+00  0.1080E+02
     18.914  0.3405E+00  0.1084E+02
     19.016  0.6889E+00  0.1091E+02
     19.117  0.8097E+00  0.1099E+02
     19.218  0.7680E+00  0.1107E+02
     19.320  0.6319E+00  0.1113E+02
     19.421  0.3066E+00  0.1116E+02
     19.522  0.1710E+00  0.1118E+02
     19.624  0.7683E+00  0.1126E+02
     19.725  0.1003E+01  0.1136E+02
     19.826  0.4956E+00  0.1141E+02
     19.928  0.4588E+00  0.1146E+02
     20.029  0.6054E+00  0.1152E+02
     20.130  0.9451E+00  0.1161E+02
     20.231  0.4139E+00  0.1166E+02
     20.333  0.3129E+00  0.1169E+02
     20.434  0.8677E+00  0.1178E+02
     20.535  0.7623E+00  0.1185E+02
     20.637  0.3164E+00  0.1189E+02
     20.738  0.1920E+00  0.1190E+02
     20.839  0.4997E-01  0.1191E+02
     20.941  0.2292E-02  0.1191E+02
     21.042  0.1590E-04  0.1191E+02
     21.143  0.1561E-07  0.1191E+02
     21.245  0.2090E-11  0.1191E+02
     21.346  0.8452E-13  0.1191E+02
     21.447  0.1275E-08  0.1191E+02
     21.549  0.2604E-05  0.1191E+02
     21.650  0.7419E-03  0.1191E+02
     21.751  0.3110E-01  0.1191E+02
     21.853  0.2085E+00  0.1193E+02
     21.954  0.2425E+00  0.1196E+02
     22.055  0.4941E-01  0.1196E+02
     22.157  0.1636E-02  0.1196E+02
     22.258  0.1337E-03  0.1196E+02
     22.359  0.8899E-02  0.1196E+02
     22.461  0.9817E-01  0.1197E+02
     22.562  0.1843E+00  0.1199E+02
     22.663  0.6101E-01  0.1200E+02
     22.764  0.3361E-02  0.1200E+02
     22.866  0.2815E-04  0.1200E+02
     22.967  0.3352E-07  0.1200E+02
     23.068  0.5457E-11  0.1200E+02
     23.170  0.1185E-15  0.1200E+02
     23.271  0.0000E+00  0.1200E+02
     23.372  0.0000E+00  0.1200E+02
     23.474  0.0000E+00  0.1200E+02
     23.575  0.0000E+00  0.1200E+02
     23.676  0.0000E+00  0.1200E+02
     23.778  0.0000E+00  0.1200E+02
     23.879  0.0000E+00  0.1200E+02
