    1    1    1    1
  0.1830887E+02  0.2958413E-09  0.2958413E-09  0.2958413E-09  0.5000000E-15
  1.000000000000000E-004
  CAR 
 fcc Si                                  
      4     56      6
 
  0.0000000E+00  0.0000000E+00  0.0000000E+00  0.7513148E-03
    1       -5.135342
    2       15.700451
    3       15.700489
    4       15.700490
    5       18.422444
    6       18.422478
 
  0.9090909E-01  0.0000000E+00  0.0000000E+00  0.6010518E-02
    1       -4.932125
    2       13.807854
    3       15.306329
    4       15.306363
    5       18.744287
    6       19.030792
 
  0.1818182E+00  0.0000000E+00  0.0000000E+00  0.6010518E-02
    1       -4.324996
    2       10.693599
    3       14.671464
    4       14.671499
    5       18.635006
    6       19.773534
 
  0.2727273E+00  0.0000000E+00  0.0000000E+00  0.6010518E-02
    1       -3.320611
    2        7.599141
    3       14.187667
    4       14.187701
    5       18.413621
    6       19.116277
 
  0.3636364E+00  0.0000000E+00  0.0000000E+00  0.6010518E-02
    1       -1.938340
    2        4.772193
    3       13.915054
    4       13.915084
    5       18.178141
    6       18.178399
 
  0.4545455E+00  0.0000000E+00  0.0000000E+00  0.6010518E-02
    1       -0.286663
    2        2.383550
    3       13.809576
    4       13.809603
    5       17.626614
    6       17.626854
 
  0.9090909E-01  0.9090909E-01  0.0000000E+00  0.4507889E-02
    1       -4.864494
    2       14.412846
    3       14.412872
    4       14.998059
    5       17.213701
    6       20.052851
 
  0.1818182E+00  0.9090909E-01  0.0000000E+00  0.1803156E-01
    1       -4.392030
    2       11.861211
    3       13.609735
    4       14.668022
    5       17.322683
    6       20.075465
 
  0.2727273E+00  0.9090909E-01  0.0000000E+00  0.1803156E-01
    1       -3.519764
    2        8.758489
    3       13.074734
    4       13.997873
    5       17.374330
    6       19.629247
 
  0.3636364E+00  0.9090909E-01  0.0000000E+00  0.1803156E-01
    1       -2.260587
    2        5.840718
    3       12.851182
    4       13.314712
    5       16.750997
    6       19.675597
 
  0.4545455E+00  0.9090909E-01  0.0000000E+00  0.1803156E-01
    1       -0.666769
    2        3.274055
    3       12.675797
    4       12.933806
    5       16.514350
    6       18.956451
 
 -0.4545455E+00  0.9090909E-01  0.0000000E+00  0.1803156E-01
    1        0.332123
    2        2.029541
    3       12.169428
    4       13.295426
    5       16.808806
    6       18.382795
 
 -0.3636364E+00  0.9090909E-01  0.0000000E+00  0.1803156E-01
    1       -1.226719
    2        4.080414
    3       11.897182
    4       13.875433
    5       17.569614
    6       18.265533
 
 -0.2727273E+00  0.9090909E-01  0.0000000E+00  0.1803156E-01
    1       -2.721977
    2        6.784345
    3       11.917377
    4       14.574845
    5       18.648374
    6       18.679391
 
 -0.1818182E+00  0.9090909E-01  0.0000000E+00  0.1803156E-01
    1       -3.854683
    2        9.790150
    3       12.258264
    4       15.268759
    5       19.298535
    6       19.319212
 
 -0.9090909E-01  0.9090909E-01  0.0000000E+00  0.9015778E-02
    1       -4.594410
    2       12.807401
    3       13.013069
    4       15.695862
    5       18.952336
    6       19.039833
 
  0.1818182E+00  0.1818182E+00  0.0000000E+00  0.4507889E-02
    1       -4.054945
    2       12.683088
    3       12.683111
    4       13.246881
    5       15.341934
    6       18.027566
 
  0.2727273E+00  0.1818182E+00  0.0000000E+00  0.1803156E-01
    1       -3.316878
    2       10.161193
    3       12.044157
    4       12.560880
    5       15.425796
    6       17.200151
 
  0.3636364E+00  0.1818182E+00  0.0000000E+00  0.1803156E-01
    1       -2.187260
    2        7.242152
    3       11.482658
    4       11.735768
    5       15.108503
    6       18.712340
 
  0.4545455E+00  0.1818182E+00  0.0000000E+00  0.1803156E-01
    1       -0.696003
    2        4.571978
    3       10.458039
    4       11.766016
    5       14.984572
    6       20.663699
 
 -0.4545455E+00  0.1818182E+00  0.0000000E+00  0.1803156E-01
    1        0.859134
    2        2.537522
    3        9.659182
    4       12.126919
    5       15.313958
    6       20.493258
 
 -0.3636364E+00  0.1818182E+00  0.0000000E+00  0.1803156E-01
    1       -0.143460
    2        3.785982
    3        9.167538
    4       12.796660
    5       16.068925
    6       20.065318
 
 -0.2727273E+00  0.1818182E+00  0.0000000E+00  0.1803156E-01
    1       -1.731351
    2        6.337984
    3        9.020071
    4       13.717008
    5       17.203730
    6       20.035369
 
 -0.1818182E+00  0.1818182E+00  0.0000000E+00  0.9015778E-02
    1       -2.985514
    2        9.190073
    3        9.266017
    4       14.720917
    5       18.611028
    6       20.393096
 
  0.2727273E+00  0.2727273E+00  0.0000000E+00  0.4507889E-02
    1       -2.713645
    2       10.637231
    3       11.296725
    4       11.296746
    5       13.799185
    6       15.271448
 
  0.3636364E+00  0.2727273E+00  0.0000000E+00  0.1803156E-01
    1       -1.717444
    2        8.605579
    3        9.833573
    4       10.879330
    5       13.854309
    6       15.569408
 
  0.4545455E+00  0.2727273E+00  0.0000000E+00  0.1803156E-01
    1       -0.347181
    2        6.125567
    3        8.343838
    4       10.808442
    5       13.780088
    6       17.818703
 
 -0.4545455E+00  0.2727273E+00  0.0000000E+00  0.1803156E-01
    1        1.289175
    2        3.855912
    3        7.272371
    4       11.085312
    5       14.062247
    6       20.482883
 
 -0.3636364E+00  0.2727273E+00  0.0000000E+00  0.1803156E-01
    1        1.260850
    2        3.913482
    3        6.581606
    4       11.696015
    5       14.744634
    6       22.497353
 
 -0.2727273E+00  0.2727273E+00  0.0000000E+00  0.9015778E-02
    1       -0.368782
    2        6.245904
    3        6.291026
    4       12.608837
    5       15.806924
    6       21.864252
 
  0.3636364E+00  0.3636364E+00  0.0000000E+00  0.4507889E-02
    1       -0.855819
    2        7.453451
    3       10.349847
    4       10.349868
    5       12.737079
    6       13.750145
 
  0.4545455E+00  0.3636364E+00  0.0000000E+00  0.1803156E-01
    1        0.384559
    2        5.913470
    3        8.512512
    4       10.167478
    5       12.952128
    6       14.719972
 
 -0.4545455E+00  0.3636364E+00  0.0000000E+00  0.1803156E-01
    1        1.947568
    2        4.589864
    3        6.249669
    4       10.337365
    5       13.179260
    6       17.356852
 
 -0.3636364E+00  0.3636364E+00  0.0000000E+00  0.9015778E-02
    1        2.708260
    2        4.190761
    3        4.843041
    4       10.854175
    5       13.776954
    6       20.349321
 
  0.4545455E+00  0.4545455E+00  0.0000000E+00  0.4507889E-02
    1        1.491915
    2        4.315368
    3        9.872101
    4        9.872121
    5       12.207768
    6       13.089344
 
 -0.4545455E+00  0.4545455E+00  0.0000000E+00  0.9015778E-02
    1        2.775126
    2        3.156316
    3        8.209667
    4        9.929180
    5       12.662683
    6       14.453664
 
  0.2727273E+00  0.1818182E+00  0.9090909E-01  0.1803156E-01
    1       -3.786845
    2       11.001890
    3       11.173527
    4       14.481967
    5       17.301548
    6       18.768235
 
  0.3636364E+00  0.1818182E+00  0.9090909E-01  0.3606311E-01
    1       -2.785532
    2        8.066953
    3       10.630707
    4       13.590247
    5       17.348397
    6       19.168614
 
  0.4545455E+00  0.1818182E+00  0.9090909E-01  0.3606311E-01
    1       -1.407340
    2        5.268854
    3       10.488355
    4       12.592381
    5       17.047760
    6       19.024193
 
 -0.4545455E+00  0.1818182E+00  0.9090909E-01  0.3606311E-01
    1        0.239815
    2        2.894851
    3       10.573900
    4       11.890372
    5       17.024462
    6       18.390655
 
  0.3636364E+00  0.2727273E+00  0.9090909E-01  0.1803156E-01
    1       -2.449448
    2        9.411787
    3        9.710750
    4       11.768107
    5       15.863061
    6       16.581594
 
  0.4545455E+00  0.2727273E+00  0.9090909E-01  0.3606311E-01
    1       -1.198447
    2        6.768923
    3        9.185860
    4       10.634842
    5       15.938841
    6       18.283247
 
 -0.4545455E+00  0.2727273E+00  0.9090909E-01  0.3606311E-01
    1        0.385432
    2        4.264525
    3        8.710243
    4       10.158915
    5       16.056462
    6       20.100350
 
 -0.3636364E+00  0.2727273E+00  0.9090909E-01  0.3606311E-01
    1        1.373151
    2        3.046302
    3        8.123016
    4       10.487351
    5       16.522645
    6       19.871552
 
 -0.2727273E+00  0.2727273E+00  0.9090909E-01  0.3606311E-01
    1       -0.178499
    2        5.079982
    3        7.762721
    4       11.294015
    5       17.288218
    6       19.604793
 
 -0.1818182E+00  0.2727273E+00  0.9090909E-01  0.1803156E-01
    1       -1.661780
    2        7.707099
    3        7.765528
    4       12.420894
    5       18.124968
    6       19.205928
 
  0.4545455E+00  0.3636364E+00  0.9090909E-01  0.1803156E-01
    1       -0.598974
    2        7.401215
    3        8.714615
    4        9.417747
    5       14.862751
    6       15.370890
 
 -0.4545455E+00  0.3636364E+00  0.9090909E-01  0.3606311E-01
    1        0.875913
    2        5.678290
    3        7.018684
    4        9.068255
    5       15.146112
    6       17.629700
 
 -0.3636364E+00  0.3636364E+00  0.9090909E-01  0.3606311E-01
    1        2.391147
    2        3.952734
    3        5.902926
    4        9.421960
    5       15.559239
    6       20.391497
 
 -0.2727273E+00  0.3636364E+00  0.9090909E-01  0.1803156E-01
    1        1.370606
    2        5.220551
    3        5.343279
    4       10.185541
    5       16.312596
    6       21.860069
 
 -0.4545455E+00  0.4545455E+00  0.9090909E-01  0.1803156E-01
    1        1.730509
    2        4.517539
    3        8.212958
    4        8.619962
    5       14.354444
    6       14.822070
 
 -0.3636364E+00  0.4545455E+00  0.9090909E-01  0.1803156E-01
    1        3.099122
    2        3.673161
    3        6.181521
    4        8.742850
    5       14.886590
    6       17.405717
 
 -0.4545455E+00  0.3636364E+00  0.1818182E+00  0.1803156E-01
    1        0.161166
    2        6.538060
    3        6.748647
    4        9.244384
    5       18.013878
    6       18.273385
 
 -0.3636364E+00  0.3636364E+00  0.1818182E+00  0.3606311E-01
    1        1.782223
    2        4.367991
    3        6.748077
    4        8.365907
    5       18.114637
    6       19.658771
 
 -0.3636364E+00  0.4545455E+00  0.1818182E+00  0.1803156E-01
    1        2.405662
    2        4.968981
    3        6.237261
    4        7.195790
    5       17.743687
    6       17.791223
 
 -0.2727273E+00  0.4545455E+00  0.1818182E+00  0.1803156E-01
    1        3.183945
    2        4.705539
    3        5.111791
    4        7.325440
    5       18.163800
    6       20.419671
