<?xml version="1.0" encoding="ISO-8859-1"?>
<modeling>
 <generator>
  <i name="program" type="string">vasp </i>
  <i name="version" type="string">5.3.5  </i>
  <i name="subversion" type="string">31Mar14 (build Feb  5 2015 19:39:53) complex                          parallel </i>
  <i name="platform" type="string">HPCUofA </i>
  <i name="date" type="string">2017 11 14 </i>
  <i name="time" type="string">14:07:16 </i>
 </generator>
 <incar>
  <i type="string" name="SYSTEM"> fcc Si</i>
  <i type="int" name="ISTART">     0</i>
  <i type="string" name="PREC">normal</i>
  <i type="int" name="ICHARG">     2</i>
  <i name="ENCUT">    240.00000000</i>
  <i type="int" name="ISMEAR">     0</i>
  <i name="SIGMA">      0.10000000</i>
 </incar>
 <kpoints>
  <generation param="Monkhorst-Pack">
   <v type="int" name="divisions">      11       11       11 </v>
   <v name="usershift">      0.00000000       0.00000000       0.00000000 </v>
   <v name="genvec1">      0.09090909       0.00000000       0.00000000 </v>
   <v name="genvec2">      0.00000000       0.09090909       0.00000000 </v>
   <v name="genvec3">      0.00000000       0.00000000       0.09090909 </v>
   <v name="shift">      0.00000000       0.00000000       0.00000000 </v>
  </generation>
  <varray name="kpointlist" >
   <v>       0.00000000       0.00000000       0.00000000 </v>
   <v>       0.09090909       0.00000000       0.00000000 </v>
   <v>       0.18181818       0.00000000       0.00000000 </v>
   <v>       0.27272727       0.00000000       0.00000000 </v>
   <v>       0.36363636       0.00000000       0.00000000 </v>
   <v>       0.45454545       0.00000000       0.00000000 </v>
   <v>       0.09090909       0.09090909       0.00000000 </v>
   <v>       0.18181818       0.09090909       0.00000000 </v>
   <v>       0.27272727       0.09090909       0.00000000 </v>
   <v>       0.36363636       0.09090909       0.00000000 </v>
   <v>       0.45454545       0.09090909       0.00000000 </v>
   <v>      -0.45454545       0.09090909       0.00000000 </v>
   <v>      -0.36363636       0.09090909       0.00000000 </v>
   <v>      -0.27272727       0.09090909       0.00000000 </v>
   <v>      -0.18181818       0.09090909       0.00000000 </v>
   <v>      -0.09090909       0.09090909       0.00000000 </v>
   <v>       0.18181818       0.18181818       0.00000000 </v>
   <v>       0.27272727       0.18181818       0.00000000 </v>
   <v>       0.36363636       0.18181818       0.00000000 </v>
   <v>       0.45454545       0.18181818       0.00000000 </v>
   <v>      -0.45454545       0.18181818       0.00000000 </v>
   <v>      -0.36363636       0.18181818       0.00000000 </v>
   <v>      -0.27272727       0.18181818       0.00000000 </v>
   <v>      -0.18181818       0.18181818       0.00000000 </v>
   <v>       0.27272727       0.27272727       0.00000000 </v>
   <v>       0.36363636       0.27272727       0.00000000 </v>
   <v>       0.45454545       0.27272727       0.00000000 </v>
   <v>      -0.45454545       0.27272727       0.00000000 </v>
   <v>      -0.36363636       0.27272727       0.00000000 </v>
   <v>      -0.27272727       0.27272727       0.00000000 </v>
   <v>       0.36363636       0.36363636       0.00000000 </v>
   <v>       0.45454545       0.36363636       0.00000000 </v>
   <v>      -0.45454545       0.36363636       0.00000000 </v>
   <v>      -0.36363636       0.36363636       0.00000000 </v>
   <v>       0.45454545       0.45454545       0.00000000 </v>
   <v>      -0.45454545       0.45454545       0.00000000 </v>
   <v>       0.27272727       0.18181818       0.09090909 </v>
   <v>       0.36363636       0.18181818       0.09090909 </v>
   <v>       0.45454545       0.18181818       0.09090909 </v>
   <v>      -0.45454545       0.18181818       0.09090909 </v>
   <v>       0.36363636       0.27272727       0.09090909 </v>
   <v>       0.45454545       0.27272727       0.09090909 </v>
   <v>      -0.45454545       0.27272727       0.09090909 </v>
   <v>      -0.36363636       0.27272727       0.09090909 </v>
   <v>      -0.27272727       0.27272727       0.09090909 </v>
   <v>      -0.18181818       0.27272727       0.09090909 </v>
   <v>       0.45454545       0.36363636       0.09090909 </v>
   <v>      -0.45454545       0.36363636       0.09090909 </v>
   <v>      -0.36363636       0.36363636       0.09090909 </v>
   <v>      -0.27272727       0.36363636       0.09090909 </v>
   <v>      -0.45454545       0.45454545       0.09090909 </v>
   <v>      -0.36363636       0.45454545       0.09090909 </v>
   <v>      -0.45454545       0.36363636       0.18181818 </v>
   <v>      -0.36363636       0.36363636       0.18181818 </v>
   <v>      -0.36363636       0.45454545       0.18181818 </v>
   <v>      -0.27272727       0.45454545       0.18181818 </v>
  </varray>
  <varray name="weights" >
   <v>       0.00075131 </v>
   <v>       0.00601052 </v>
   <v>       0.00601052 </v>
   <v>       0.00601052 </v>
   <v>       0.00601052 </v>
   <v>       0.00601052 </v>
   <v>       0.00450789 </v>
   <v>       0.01803156 </v>
   <v>       0.01803156 </v>
   <v>       0.01803156 </v>
   <v>       0.01803156 </v>
   <v>       0.01803156 </v>
   <v>       0.01803156 </v>
   <v>       0.01803156 </v>
   <v>       0.01803156 </v>
   <v>       0.00901578 </v>
   <v>       0.00450789 </v>
   <v>       0.01803156 </v>
   <v>       0.01803156 </v>
   <v>       0.01803156 </v>
   <v>       0.01803156 </v>
   <v>       0.01803156 </v>
   <v>       0.01803156 </v>
   <v>       0.00901578 </v>
   <v>       0.00450789 </v>
   <v>       0.01803156 </v>
   <v>       0.01803156 </v>
   <v>       0.01803156 </v>
   <v>       0.01803156 </v>
   <v>       0.00901578 </v>
   <v>       0.00450789 </v>
   <v>       0.01803156 </v>
   <v>       0.01803156 </v>
   <v>       0.00901578 </v>
   <v>       0.00450789 </v>
   <v>       0.00901578 </v>
   <v>       0.01803156 </v>
   <v>       0.03606311 </v>
   <v>       0.03606311 </v>
   <v>       0.03606311 </v>
   <v>       0.01803156 </v>
   <v>       0.03606311 </v>
   <v>       0.03606311 </v>
   <v>       0.03606311 </v>
   <v>       0.03606311 </v>
   <v>       0.01803156 </v>
   <v>       0.01803156 </v>
   <v>       0.03606311 </v>
   <v>       0.03606311 </v>
   <v>       0.01803156 </v>
   <v>       0.01803156 </v>
   <v>       0.01803156 </v>
   <v>       0.01803156 </v>
   <v>       0.03606311 </v>
   <v>       0.01803156 </v>
   <v>       0.01803156 </v>
  </varray>
 </kpoints>
 <parameters>
  <separator name="general" >
   <i type="string" name="SYSTEM">fcc Si</i>
   <i type="logical" name="LCOMPAT"> F  </i>
  </separator>
  <separator name="electronic" >
   <i type="string" name="PREC">normal</i>
   <i name="ENMAX">    240.00000000</i>
   <i name="ENAUG">    322.06900000</i>
   <i name="EDIFF">      0.00010000</i>
   <i type="int" name="IALGO">    38</i>
   <i type="int" name="IWAVPR">    10</i>
   <i type="int" name="NBANDS">     6</i>
   <i name="NELECT">      4.00000000</i>
   <i type="int" name="TURBO">     0</i>
   <i type="int" name="IRESTART">     0</i>
   <i type="int" name="NREBOOT">     0</i>
   <i type="int" name="NMIN">     0</i>
   <i name="EREF">      0.00000000</i>
   <separator name="electronic smearing" >
    <i type="int" name="ISMEAR">     0</i>
    <i name="SIGMA">      0.10000000</i>
    <i name="KSPACING">      0.50000000</i>
    <i type="logical" name="KGAMMA"> T  </i>
   </separator>
   <separator name="electronic projectors" >
    <i type="logical" name="LREAL"> F  </i>
    <v name="ROPT">      0.00000000</v>
    <i type="int" name="LMAXPAW">  -100</i>
    <i type="int" name="LMAXMIX">     2</i>
    <i type="logical" name="NLSPLINE"> F  </i>
   </separator>
   <separator name="electronic startup" >
    <i type="int" name="ISTART">     0</i>
    <i type="int" name="ICHARG">     2</i>
    <i type="int" name="INIWAV">     1</i>
   </separator>
   <separator name="electronic spin" >
    <i type="int" name="ISPIN">     1</i>
    <i type="logical" name="LNONCOLLINEAR"> F  </i>
    <v name="MAGMOM">      1.00000000</v>
    <i name="NUPDOWN">     -1.00000000</i>
    <i type="logical" name="LSORBIT"> F  </i>
    <v name="SAXIS">      0.00000000      0.00000000      1.00000000</v>
    <i type="logical" name="LSPIRAL"> F  </i>
    <v name="QSPIRAL">      0.00000000      0.00000000      0.00000000</v>
    <i type="logical" name="LZEROZ"> F  </i>
   </separator>
   <separator name="electronic exchange-correlation" >
    <i type="logical" name="LASPH"> F  </i>
    <i type="logical" name="LMETAGGA"> F  </i>
   </separator>
   <separator name="electronic convergence" >
    <i type="int" name="NELM">    60</i>
    <i type="int" name="NELMDL">    -5</i>
    <i type="int" name="NELMIN">     2</i>
    <i name="ENINI">    240.00000000</i>
    <separator name="electronic convergence detail" >
     <i type="logical" name="LDIAG"> T  </i>
     <i type="logical" name="LSUBROT"> F  </i>
     <i name="WEIMIN">      0.00000000</i>
     <i name="EBREAK">      0.00000417</i>
     <i name="DEPER">      0.30000000</i>
     <i type="int" name="NRMM">     4</i>
     <i name="TIME">      0.40000000</i>
    </separator>
   </separator>
   <separator name="electronic mixer" >
    <i name="AMIX">      0.40000000</i>
    <i name="BMIX">      1.00000000</i>
    <i name="AMIN">      0.10000000</i>
    <i name="AMIX_MAG">      1.60000000</i>
    <i name="BMIX_MAG">      1.00000000</i>
    <separator name="electronic mixer details" >
     <i type="int" name="IMIX">     4</i>
     <i type="int" name="MAXMIX">   -45</i>
     <i name="WC">    100.00000000</i>
     <i type="int" name="INIMIX">     1</i>
     <i type="int" name="MIXPRE">     1</i>
     <i type="int" name="MREMOVE">     5</i>
    </separator>
   </separator>
   <separator name="electronic dipolcorrection" >
    <i type="logical" name="LDIPOL"> F  </i>
    <i type="logical" name="LMONO"> F  </i>
    <i type="int" name="IDIPOL">     0</i>
    <i name="EPSILON">      1.00000000</i>
    <v name="DIPOL">   -100.00000000   -100.00000000   -100.00000000</v>
    <i name="EFIELD">      0.00000000</i>
   </separator>
  </separator>
  <separator name="grids" >
   <i type="int" name="NGX">    12</i>
   <i type="int" name="NGY">    12</i>
   <i type="int" name="NGZ">    12</i>
   <i type="int" name="NGXF">    24</i>
   <i type="int" name="NGYF">    24</i>
   <i type="int" name="NGZF">    24</i>
   <i type="logical" name="ADDGRID"> F  </i>
  </separator>
  <separator name="ionic" >
   <i type="int" name="NSW">     0</i>
   <i type="int" name="IBRION">    -1</i>
   <i type="int" name="ISIF">     2</i>
   <i name="PSTRESS">      0.00000000</i>
   <i name="EDIFFG">      0.00100000</i>
   <i type="int" name="NFREE">     0</i>
   <i name="POTIM">      0.50000000</i>
   <i name="SMASS">     -3.00000000</i>
   <i name="SCALEE">      1.00000000</i>
  </separator>
  <separator name="ionic md" >
   <i name="TEBEG">      0.00010000</i>
   <i name="TEEND">      0.00010000</i>
   <i type="int" name="NBLOCK">     1</i>
   <i type="int" name="KBLOCK">     1</i>
   <i type="int" name="NPACO">   256</i>
   <i name="APACO">     16.00000000</i>
  </separator>
  <separator name="symmetry" >
   <i type="int" name="ISYM">     2</i>
   <i name="SYMPREC">      0.00001000</i>
  </separator>
  <separator name="dos" >
   <i type="logical" name="LORBIT"> F  </i>
   <v name="RWIGS">     -1.00000000</v>
   <i type="int" name="NEDOS">   301</i>
   <i name="EMIN">     10.00000000</i>
   <i name="EMAX">    -10.00000000</i>
   <i name="EFERMI">      0.00000000</i>
  </separator>
  <separator name="writing" >
   <i type="int" name="NWRITE">     2</i>
   <i type="logical" name="LWAVE"> T  </i>
   <i type="logical" name="LCHARG"> T  </i>
   <i type="logical" name="LPARD"> F  </i>
   <i type="logical" name="LVTOT"> F  </i>
   <i type="logical" name="LVHAR"> F  </i>
   <i type="logical" name="LELF"> F  </i>
   <i type="logical" name="LOPTICS"> F  </i>
   <v name="STM">      0.00000000      0.00000000      0.00000000      0.00000000      0.00000000      0.00000000      0.00000000</v>
  </separator>
  <separator name="performance" >
   <i type="int" name="NPAR">     1</i>
   <i type="int" name="NSIM">     4</i>
   <i type="int" name="NBLK">    -1</i>
   <i type="logical" name="LPLANE"> T  </i>
   <i type="logical" name="LSCALAPACK"> T  </i>
   <i type="logical" name="LSCAAWARE"> F  </i>
   <i type="logical" name="LSCALU"> F  </i>
   <i type="logical" name="LASYNC"> F  </i>
   <i type="logical" name="LORBITALREAL"> F  </i>
  </separator>
  <separator name="miscellaneous" >
   <i type="int" name="IDIOT">     3</i>
   <i type="logical" name="LMUSIC"> F  </i>
   <v name="POMASS">     28.08500000</v>
   <v name="DARWINR">      0.00000000</v>
   <v name="DARWINV">      1.00000000</v>
   <i type="logical" name="LCORR"> T  </i>
  </separator>
  <i type="logical" name="GGA_COMPAT"> T  </i>
  <i type="logical" name="LBERRY"> F  </i>
  <i type="int" name="ICORELEVEL">     0</i>
  <i type="logical" name="LDAU"> F  </i>
  <i type="int" name="I_CONSTRAINED_M">     0</i>
  <separator name="electronic exchange-correlation" >
   <i type="string" name="GGA">--</i>
   <i type="int" name="VOSKOWN">     0</i>
   <i type="logical" name="LHFCALC"> F  </i>
   <i type="string" name="PRECFOCK"></i>
   <i type="logical" name="LSYMGRAD"> F  </i>
   <i type="logical" name="LHFONE"> F  </i>
   <i type="logical" name="LRHFCALC"> F  </i>
   <i type="logical" name="LTHOMAS"> F  </i>
   <i type="logical" name="LMODELHF"> F  </i>
   <i name="ENCUT4O">     -1.00000000</i>
   <i type="int" name="EXXOEP">     0</i>
   <i type="int" name="FOURORBIT">     0</i>
   <i name="AEXX">      0.00000000</i>
   <i name="HFALPHA">      0.00000000</i>
   <i name="MCALPHA">      0.00000000</i>
   <i name="ALDAX">      1.00000000</i>
   <i name="AGGAX">      1.00000000</i>
   <i name="ALDAC">      1.00000000</i>
   <i name="AGGAC">      1.00000000</i>
   <i type="int" name="NKREDX">     1</i>
   <i type="int" name="NKREDY">     1</i>
   <i type="int" name="NKREDZ">     1</i>
   <i type="logical" name="SHIFTRED"> F  </i>
   <i type="logical" name="ODDONLY"> F  </i>
   <i type="logical" name="EVENONLY"> F  </i>
   <i type="int" name="LMAXFOCK">     0</i>
   <i type="int" name="NMAXFOCKAE">     0</i>
   <i type="logical" name="LFOCKAEDFT"> F  </i>
   <i name="HFSCREEN">      0.00000000</i>
   <i name="HFSCREENC">      0.00000000</i>
   <i type="int" name="NBANDSGWLOW">     0</i>
  </separator>
  <separator name="vdW DFT" >
   <i type="logical" name="LUSE_VDW"> F  </i>
   <i name="Zab_VDW">     -0.84910000</i>
   <i name="PARAM1">      0.12340000</i>
   <i name="PARAM2">      1.00000000</i>
   <i name="PARAM3">      0.00000000</i>
  </separator>
  <separator name="model GW" >
   <i type="int" name="MODEL_GW">     0</i>
   <i name="MODEL_EPS0">     10.98532041</i>
   <i name="MODEL_ALPHA">      1.00000000</i>
  </separator>
  <separator name="linear response parameters" >
   <i type="logical" name="LEPSILON"> F  </i>
   <i type="logical" name="LRPA"> F  </i>
   <i type="logical" name="LNABLA"> F  </i>
   <i type="logical" name="LVEL"> F  </i>
   <i type="int" name="KINTER">     0</i>
   <i name="CSHIFT">      0.10000000</i>
   <i name="OMEGAMAX">     -1.00000000</i>
   <i name="DEG_THRESHOLD">      0.00200000</i>
  </separator>
  <separator name="orbital magnetization" >
   <i type="logical" name="NUCIND"> F  </i>
   <v name="MAGPOS">      0.00000000      0.00000000      0.00000000</v>
   <i type="logical" name="LNICSALL"> T  </i>
   <i type="logical" name="ORBITALMAG"> F  </i>
   <i type="logical" name="LMAGBLOCH"> F  </i>
   <i type="logical" name="LCHIMAG"> F  </i>
   <i type="logical" name="LGAUGE"> T  </i>
   <i type="int" name="MAGATOM">     0</i>
   <v name="MAGDIPOL">      0.00000000      0.00000000      0.00000000</v>
   <v name="AVECCONST">      0.00000000      0.00000000      0.00000000</v>
  </separator>
  <separator name="response functions" >
   <i type="logical" name="LADDER"> F  </i>
   <i type="logical" name="LFXC"> F  </i>
   <i type="logical" name="LHARTREE"> T  </i>
   <i type="int" name="IBSE">     0</i>
   <i type="logical" name="LTCTE"> F  </i>
   <i type="logical" name="LTETE"> F  </i>
   <i type="logical" name="LTRIPLET"> F  </i>
   <i type="logical" name="LFXCEPS"> F  </i>
   <i type="logical" name="LFXHEG"> F  </i>
   <i type="logical" name="L2ORDER"> F  </i>
   <i type="logical" name="LUSEW"> F  </i>
   <i name="ENCUTGW">     -2.00000000</i>
   <i name="ENCUTGWSOFT">     -2.00000000</i>
   <i name="ENCUTLF">     -1.00000000</i>
   <i type="int" name="LMAXMP2">    -1</i>
   <i name="SCISSOR">      0.00000000</i>
   <i type="int" name="NOMEGA">     0</i>
   <i type="int" name="NOMEGAR">     0</i>
   <i type="int" name="NBANDSGW">    -1</i>
   <i type="int" name="NBANDSO">    -1</i>
   <i type="int" name="NBANDSV">    -1</i>
   <i type="int" name="NELM">     1</i>
   <i type="int" name="DIM">     3</i>
   <i type="int" name="ANTIRES">     0</i>
   <i name="OMEGAMAX">    -30.00000000</i>
   <i name="OMEGAMIN">    -30.00000000</i>
   <i name="OMEGATL">   -200.00000000</i>
   <i type="int" name="OMEGAGRID">     0</i>
   <i name="CSHIFT">     -0.10000000</i>
   <i type="logical" name="SELFENERGY"> F  </i>
   <i type="logical" name="LSPECTRAL"> F  </i>
   <i type="logical" name="ODDONLYGW"> F  </i>
   <i type="logical" name="EVENONLYGW"> F  </i>
   <i type="int" name="NKREDLFX">     1</i>
   <i type="int" name="NKREDLFY">     1</i>
   <i type="int" name="NKREDLFZ">     1</i>
   <i type="int" name="MAXMEM">  1800</i>
   <i type="int" name="TELESCOPE">     0</i>
   <i type="int" name="TAUPAR">     1</i>
  </separator>
  <separator name="External order field" >
   <i name="OFIELD_KAPPA">      0.00000000</i>
   <v name="OFIELD_K">      0.00000000      0.00000000      0.00000000</v>
   <i name="OFIELD_Q6_NEAR">      0.00000000</i>
   <i name="OFIELD_Q6_FAR">      0.00000000</i>
   <i name="OFIELD_A">      0.00000000</i>
  </separator>
 </parameters>
 <atominfo>
  <atoms>       1 </atoms>
  <types>       1 </types>
  <array name="atoms" >
   <dimension dim="1">ion</dimension>
   <field type="string">element</field>
   <field type="int">atomtype</field>
   <set>
    <rc><c>Si</c><c>   1</c></rc>
   </set>
  </array>
  <array name="atomtypes" >
   <dimension dim="1">type</dimension>
   <field type="int">atomspertype</field>
   <field type="string">element</field>
   <field>mass</field>
   <field>valence</field>
   <field type="string">pseudopotential</field>
   <set>
    <rc><c>   1</c><c>Si</c><c>     28.08500000</c><c>      4.00000000</c><c> PAW Si 02Apr1999                       </c></rc>
   </set>
  </array>
 </atominfo>
 <structure name="initialpos" >
  <crystal>
   <varray name="basis" >
    <v>       2.09191400       2.09191400       0.00000000 </v>
    <v>       0.00000000       2.09191400       2.09191400 </v>
    <v>       2.09191400       0.00000000       2.09191400 </v>
   </varray>
   <i name="volume">     18.30886734 </i>
   <varray name="rec_basis" >
    <v>       0.23901556       0.23901556      -0.23901556 </v>
    <v>      -0.23901556       0.23901556       0.23901556 </v>
    <v>       0.23901556      -0.23901556       0.23901556 </v>
   </varray>
  </crystal>
  <varray name="positions" >
   <v>       0.00000000       0.00000000       0.00000000 </v>
  </varray>
 </structure>
 <calculation>
  <scstep>
   <time name="dav">    0.11    0.11</time>
   <time name="total">    0.12    0.12</time>
   <energy>
    <i name="alphaZ">      1.29475347 </i>
    <i name="ewald">   -126.24044371 </i>
    <i name="hartreedc">     -1.33919035 </i>
    <i name="XCdc">     -9.35787655 </i>
    <i name="pawpsdc">     33.55897582 </i>
    <i name="pawaedc">    -16.14130609 </i>
    <i name="eentropy">     -0.00204355 </i>
    <i name="bandstr">     11.02652000 </i>
    <i name="atom">    103.42762056 </i>
    <i name="e_fr_energy">     -3.77299038 </i>
    <i name="e_wo_entrp">     -3.77094683 </i>
    <i name="e_0_energy">     -3.77196861 </i>
   </energy>
  </scstep>
  <scstep>
   <time name="dav">    0.14    0.14</time>
   <time name="total">    0.14    0.15</time>
   <energy>
    <i name="e_fr_energy">     -5.26440964 </i>
    <i name="e_wo_entrp">     -5.26181372 </i>
    <i name="e_0_energy">     -5.26311168 </i>
   </energy>
  </scstep>
  <scstep>
   <time name="dav">    0.13    0.13</time>
   <time name="total">    0.13    0.13</time>
   <energy>
    <i name="e_fr_energy">     -5.27982265 </i>
    <i name="e_wo_entrp">     -5.27724197 </i>
    <i name="e_0_energy">     -5.27853231 </i>
   </energy>
  </scstep>
  <scstep>
   <time name="dav">    0.14    0.14</time>
   <time name="total">    0.14    0.15</time>
   <energy>
    <i name="e_fr_energy">     -5.27984280 </i>
    <i name="e_wo_entrp">     -5.27726225 </i>
    <i name="e_0_energy">     -5.27855253 </i>
   </energy>
  </scstep>
  <scstep>
   <time name="dav">    0.12    0.12</time>
   <time name="total">    0.13    0.13</time>
   <energy>
    <i name="e_fr_energy">     -5.27984283 </i>
    <i name="e_wo_entrp">     -5.27726228 </i>
    <i name="e_0_energy">     -5.27855256 </i>
   </energy>
  </scstep>
  <scstep>
   <time name="dav">    0.11    0.11</time>
   <time name="total">    0.12    0.12</time>
   <energy>
    <i name="e_fr_energy">     -5.26688182 </i>
    <i name="e_wo_entrp">     -5.26417403 </i>
    <i name="e_0_energy">     -5.26552792 </i>
   </energy>
  </scstep>
  <scstep>
   <time name="dav">    0.11    0.11</time>
   <time name="total">    0.12    0.12</time>
   <energy>
    <i name="e_fr_energy">     -5.26061359 </i>
    <i name="e_wo_entrp">     -5.25776266 </i>
    <i name="e_0_energy">     -5.25918813 </i>
   </energy>
  </scstep>
  <scstep>
   <time name="dav">    0.11    0.11</time>
   <time name="total">    0.11    0.12</time>
   <energy>
    <i name="alphaZ">      1.29475347 </i>
    <i name="ewald">   -126.24044371 </i>
    <i name="hartreedc">     -1.05471001 </i>
    <i name="XCdc">     -9.33362290 </i>
    <i name="pawpsdc">     33.58487352 </i>
    <i name="pawaedc">    -16.15505258 </i>
    <i name="eentropy">     -0.00284382 </i>
    <i name="bandstr">      9.21884243 </i>
    <i name="atom">    103.42762056 </i>
    <i name="e_fr_energy">     -5.26058303 </i>
    <i name="e_wo_entrp">     -5.25773921 </i>
    <i name="e_0_energy">     -5.25916112 </i>
   </energy>
  </scstep>
  <structure>
   <crystal>
    <varray name="basis" >
     <v>       2.09191400       2.09191400       0.00000000 </v>
     <v>       0.00000000       2.09191400       2.09191400 </v>
     <v>       2.09191400       0.00000000       2.09191400 </v>
    </varray>
    <i name="volume">     18.30886734 </i>
    <varray name="rec_basis" >
     <v>       0.23901556       0.23901556      -0.23901556 </v>
     <v>      -0.23901556       0.23901556       0.23901556 </v>
     <v>       0.23901556      -0.23901556       0.23901556 </v>
    </varray>
   </crystal>
   <varray name="positions" >
    <v>       0.00000000       0.00000000       0.00000000 </v>
   </varray>
  </structure>
  <varray name="forces" >
   <v>       0.00000000       0.00000000       0.00000000 </v>
  </varray>
  <varray name="stress" >
   <v>    -149.45938452       0.00000000       0.00000000 </v>
   <v>      -0.00000000    -149.45938452       0.00000000 </v>
   <v>      -0.00000000       0.00000000    -149.45938452 </v>
  </varray>
  <energy>
   <i name="e_fr_energy">     -5.26058303 </i>
   <i name="e_wo_entrp">     -5.25916112 </i>
   <i name="e_0_energy">     -0.00284382 </i>
  </energy>
  <time name="totalsc">    1.10    1.29</time>
  <eigenvalues>
   <array>
    <dimension dim="1">band</dimension>
    <dimension dim="2">kpoint</dimension>
    <dimension dim="3">spin</dimension>
    <field>eigene</field>
    <field>occ</field>
    <set>
     <set comment="spin 1">
      <set comment="kpoint 1">
       <r>   -5.1353    1.0000 </r>
       <r>   15.7005    0.0000 </r>
       <r>   15.7005    0.0000 </r>
       <r>   15.7005    0.0000 </r>
       <r>   18.4224    0.0000 </r>
       <r>   18.4225    0.0000 </r>
      </set>
      <set comment="kpoint 2">
       <r>   -4.9321    1.0000 </r>
       <r>   13.8079    0.0000 </r>
       <r>   15.3063    0.0000 </r>
       <r>   15.3064    0.0000 </r>
       <r>   18.7443    0.0000 </r>
       <r>   19.0308    0.0000 </r>
      </set>
      <set comment="kpoint 3">
       <r>   -4.3250    1.0000 </r>
       <r>   10.6936    0.0000 </r>
       <r>   14.6715    0.0000 </r>
       <r>   14.6715    0.0000 </r>
       <r>   18.6350    0.0000 </r>
       <r>   19.7735    0.0000 </r>
      </set>
      <set comment="kpoint 4">
       <r>   -3.3206    1.0000 </r>
       <r>    7.5991    0.0000 </r>
       <r>   14.1877    0.0000 </r>
       <r>   14.1877    0.0000 </r>
       <r>   18.4136    0.0000 </r>
       <r>   19.1163    0.0000 </r>
      </set>
      <set comment="kpoint 5">
       <r>   -1.9383    1.0000 </r>
       <r>    4.7722    1.0000 </r>
       <r>   13.9151    0.0000 </r>
       <r>   13.9151    0.0000 </r>
       <r>   18.1781    0.0000 </r>
       <r>   18.1784    0.0000 </r>
      </set>
      <set comment="kpoint 6">
       <r>   -0.2867    1.0000 </r>
       <r>    2.3836    1.0000 </r>
       <r>   13.8096    0.0000 </r>
       <r>   13.8096    0.0000 </r>
       <r>   17.6266    0.0000 </r>
       <r>   17.6269    0.0000 </r>
      </set>
      <set comment="kpoint 7">
       <r>   -4.8645    1.0000 </r>
       <r>   14.4128    0.0000 </r>
       <r>   14.4129    0.0000 </r>
       <r>   14.9981    0.0000 </r>
       <r>   17.2137    0.0000 </r>
       <r>   20.0529    0.0000 </r>
      </set>
      <set comment="kpoint 8">
       <r>   -4.3920    1.0000 </r>
       <r>   11.8612    0.0000 </r>
       <r>   13.6097    0.0000 </r>
       <r>   14.6680    0.0000 </r>
       <r>   17.3227    0.0000 </r>
       <r>   20.0755    0.0000 </r>
      </set>
      <set comment="kpoint 9">
       <r>   -3.5198    1.0000 </r>
       <r>    8.7585    0.0000 </r>
       <r>   13.0747    0.0000 </r>
       <r>   13.9979    0.0000 </r>
       <r>   17.3743    0.0000 </r>
       <r>   19.6292    0.0000 </r>
      </set>
      <set comment="kpoint 10">
       <r>   -2.2606    1.0000 </r>
       <r>    5.8407    1.0000 </r>
       <r>   12.8512    0.0000 </r>
       <r>   13.3147    0.0000 </r>
       <r>   16.7510    0.0000 </r>
       <r>   19.6756    0.0000 </r>
      </set>
      <set comment="kpoint 11">
       <r>   -0.6668    1.0000 </r>
       <r>    3.2741    1.0000 </r>
       <r>   12.6758    0.0000 </r>
       <r>   12.9338    0.0000 </r>
       <r>   16.5143    0.0000 </r>
       <r>   18.9565    0.0000 </r>
      </set>
      <set comment="kpoint 12">
       <r>    0.3321    1.0000 </r>
       <r>    2.0295    1.0000 </r>
       <r>   12.1694    0.0000 </r>
       <r>   13.2954    0.0000 </r>
       <r>   16.8088    0.0000 </r>
       <r>   18.3828    0.0000 </r>
      </set>
      <set comment="kpoint 13">
       <r>   -1.2267    1.0000 </r>
       <r>    4.0804    1.0000 </r>
       <r>   11.8972    0.0000 </r>
       <r>   13.8754    0.0000 </r>
       <r>   17.5696    0.0000 </r>
       <r>   18.2655    0.0000 </r>
      </set>
      <set comment="kpoint 14">
       <r>   -2.7220    1.0000 </r>
       <r>    6.7843    1.0000 </r>
       <r>   11.9174    0.0000 </r>
       <r>   14.5748    0.0000 </r>
       <r>   18.6484    0.0000 </r>
       <r>   18.6794    0.0000 </r>
      </set>
      <set comment="kpoint 15">
       <r>   -3.8547    1.0000 </r>
       <r>    9.7901    0.0000 </r>
       <r>   12.2583    0.0000 </r>
       <r>   15.2688    0.0000 </r>
       <r>   19.2985    0.0000 </r>
       <r>   19.3192    0.0000 </r>
      </set>
      <set comment="kpoint 16">
       <r>   -4.5944    1.0000 </r>
       <r>   12.8074    0.0000 </r>
       <r>   13.0131    0.0000 </r>
       <r>   15.6959    0.0000 </r>
       <r>   18.9523    0.0000 </r>
       <r>   19.0398    0.0000 </r>
      </set>
      <set comment="kpoint 17">
       <r>   -4.0549    1.0000 </r>
       <r>   12.6831    0.0000 </r>
       <r>   12.6831    0.0000 </r>
       <r>   13.2469    0.0000 </r>
       <r>   15.3419    0.0000 </r>
       <r>   18.0276    0.0000 </r>
      </set>
      <set comment="kpoint 18">
       <r>   -3.3169    1.0000 </r>
       <r>   10.1612    0.0000 </r>
       <r>   12.0442    0.0000 </r>
       <r>   12.5609    0.0000 </r>
       <r>   15.4258    0.0000 </r>
       <r>   17.2002    0.0000 </r>
      </set>
      <set comment="kpoint 19">
       <r>   -2.1873    1.0000 </r>
       <r>    7.2422    0.2938 </r>
       <r>   11.4827    0.0000 </r>
       <r>   11.7358    0.0000 </r>
       <r>   15.1085    0.0000 </r>
       <r>   18.7123    0.0000 </r>
      </set>
      <set comment="kpoint 20">
       <r>   -0.6960    1.0000 </r>
       <r>    4.5720    1.0000 </r>
       <r>   10.4580    0.0000 </r>
       <r>   11.7660    0.0000 </r>
       <r>   14.9846    0.0000 </r>
       <r>   20.6637    0.0000 </r>
      </set>
      <set comment="kpoint 21">
       <r>    0.8591    1.0000 </r>
       <r>    2.5375    1.0000 </r>
       <r>    9.6592    0.0000 </r>
       <r>   12.1269    0.0000 </r>
       <r>   15.3140    0.0000 </r>
       <r>   20.4933    0.0000 </r>
      </set>
      <set comment="kpoint 22">
       <r>   -0.1435    1.0000 </r>
       <r>    3.7860    1.0000 </r>
       <r>    9.1675    0.0000 </r>
       <r>   12.7967    0.0000 </r>
       <r>   16.0689    0.0000 </r>
       <r>   20.0653    0.0000 </r>
      </set>
      <set comment="kpoint 23">
       <r>   -1.7314    1.0000 </r>
       <r>    6.3380    1.0000 </r>
       <r>    9.0201    0.0000 </r>
       <r>   13.7170    0.0000 </r>
       <r>   17.2037    0.0000 </r>
       <r>   20.0354    0.0000 </r>
      </set>
      <set comment="kpoint 24">
       <r>   -2.9855    1.0000 </r>
       <r>    9.1901    0.0000 </r>
       <r>    9.2660    0.0000 </r>
       <r>   14.7209    0.0000 </r>
       <r>   18.6110    0.0000 </r>
       <r>   20.3931    0.0000 </r>
      </set>
      <set comment="kpoint 25">
       <r>   -2.7136    1.0000 </r>
       <r>   10.6372    0.0000 </r>
       <r>   11.2967    0.0000 </r>
       <r>   11.2967    0.0000 </r>
       <r>   13.7992    0.0000 </r>
       <r>   15.2714    0.0000 </r>
      </set>
      <set comment="kpoint 26">
       <r>   -1.7174    1.0000 </r>
       <r>    8.6056    0.0000 </r>
       <r>    9.8336    0.0000 </r>
       <r>   10.8793    0.0000 </r>
       <r>   13.8543    0.0000 </r>
       <r>   15.5694    0.0000 </r>
      </set>
      <set comment="kpoint 27">
       <r>   -0.3472    1.0000 </r>
       <r>    6.1256    1.0000 </r>
       <r>    8.3438    0.0000 </r>
       <r>   10.8084    0.0000 </r>
       <r>   13.7801    0.0000 </r>
       <r>   17.8187    0.0000 </r>
      </set>
      <set comment="kpoint 28">
       <r>    1.2892    1.0000 </r>
       <r>    3.8559    1.0000 </r>
       <r>    7.2724    0.1661 </r>
       <r>   11.0853    0.0000 </r>
       <r>   14.0622    0.0000 </r>
       <r>   20.4829    0.0000 </r>
      </set>
      <set comment="kpoint 29">
       <r>    1.2608    1.0000 </r>
       <r>    3.9135    1.0000 </r>
       <r>    6.5816    1.0000 </r>
       <r>   11.6960    0.0000 </r>
       <r>   14.7446    0.0000 </r>
       <r>   22.4974    0.0000 </r>
      </set>
      <set comment="kpoint 30">
       <r>   -0.3688    1.0000 </r>
       <r>    6.2459    1.0000 </r>
       <r>    6.2910    1.0000 </r>
       <r>   12.6088    0.0000 </r>
       <r>   15.8069    0.0000 </r>
       <r>   21.8643    0.0000 </r>
      </set>
      <set comment="kpoint 31">
       <r>   -0.8558    1.0000 </r>
       <r>    7.4535    0.0002 </r>
       <r>   10.3498    0.0000 </r>
       <r>   10.3499    0.0000 </r>
       <r>   12.7371    0.0000 </r>
       <r>   13.7501    0.0000 </r>
      </set>
      <set comment="kpoint 32">
       <r>    0.3846    1.0000 </r>
       <r>    5.9135    1.0000 </r>
       <r>    8.5125    0.0000 </r>
       <r>   10.1675    0.0000 </r>
       <r>   12.9521    0.0000 </r>
       <r>   14.7200    0.0000 </r>
      </set>
      <set comment="kpoint 33">
       <r>    1.9476    1.0000 </r>
       <r>    4.5899    1.0000 </r>
       <r>    6.2497    1.0000 </r>
       <r>   10.3374    0.0000 </r>
       <r>   13.1793    0.0000 </r>
       <r>   17.3569    0.0000 </r>
      </set>
      <set comment="kpoint 34">
       <r>    2.7083    1.0000 </r>
       <r>    4.1908    1.0000 </r>
       <r>    4.8430    1.0000 </r>
       <r>   10.8542    0.0000 </r>
       <r>   13.7770    0.0000 </r>
       <r>   20.3493    0.0000 </r>
      </set>
      <set comment="kpoint 35">
       <r>    1.4919    1.0000 </r>
       <r>    4.3154    1.0000 </r>
       <r>    9.8721    0.0000 </r>
       <r>    9.8721    0.0000 </r>
       <r>   12.2078    0.0000 </r>
       <r>   13.0893    0.0000 </r>
      </set>
      <set comment="kpoint 36">
       <r>    2.7751    1.0000 </r>
       <r>    3.1563    1.0000 </r>
       <r>    8.2097    0.0000 </r>
       <r>    9.9292    0.0000 </r>
       <r>   12.6627    0.0000 </r>
       <r>   14.4537    0.0000 </r>
      </set>
      <set comment="kpoint 37">
       <r>   -3.7868    1.0000 </r>
       <r>   11.0019    0.0000 </r>
       <r>   11.1735    0.0000 </r>
       <r>   14.4820    0.0000 </r>
       <r>   17.3015    0.0000 </r>
       <r>   18.7682    0.0000 </r>
      </set>
      <set comment="kpoint 38">
       <r>   -2.7855    1.0000 </r>
       <r>    8.0670    0.0000 </r>
       <r>   10.6307    0.0000 </r>
       <r>   13.5902    0.0000 </r>
       <r>   17.3484    0.0000 </r>
       <r>   19.1686    0.0000 </r>
      </set>
      <set comment="kpoint 39">
       <r>   -1.4073    1.0000 </r>
       <r>    5.2689    1.0000 </r>
       <r>   10.4884    0.0000 </r>
       <r>   12.5924    0.0000 </r>
       <r>   17.0478    0.0000 </r>
       <r>   19.0242    0.0000 </r>
      </set>
      <set comment="kpoint 40">
       <r>    0.2398    1.0000 </r>
       <r>    2.8949    1.0000 </r>
       <r>   10.5739    0.0000 </r>
       <r>   11.8904    0.0000 </r>
       <r>   17.0245    0.0000 </r>
       <r>   18.3907    0.0000 </r>
      </set>
      <set comment="kpoint 41">
       <r>   -2.4494    1.0000 </r>
       <r>    9.4118    0.0000 </r>
       <r>    9.7108    0.0000 </r>
       <r>   11.7681    0.0000 </r>
       <r>   15.8631    0.0000 </r>
       <r>   16.5816    0.0000 </r>
      </set>
      <set comment="kpoint 42">
       <r>   -1.1984    1.0000 </r>
       <r>    6.7689    1.0000 </r>
       <r>    9.1859    0.0000 </r>
       <r>   10.6348    0.0000 </r>
       <r>   15.9388    0.0000 </r>
       <r>   18.2832    0.0000 </r>
      </set>
      <set comment="kpoint 43">
       <r>    0.3854    1.0000 </r>
       <r>    4.2645    1.0000 </r>
       <r>    8.7102    0.0000 </r>
       <r>   10.1589    0.0000 </r>
       <r>   16.0565    0.0000 </r>
       <r>   20.1003    0.0000 </r>
      </set>
      <set comment="kpoint 44">
       <r>    1.3732    1.0000 </r>
       <r>    3.0463    1.0000 </r>
       <r>    8.1230    0.0000 </r>
       <r>   10.4874    0.0000 </r>
       <r>   16.5226    0.0000 </r>
       <r>   19.8716    0.0000 </r>
      </set>
      <set comment="kpoint 45">
       <r>   -0.1785    1.0000 </r>
       <r>    5.0800    1.0000 </r>
       <r>    7.7627    0.0000 </r>
       <r>   11.2940    0.0000 </r>
       <r>   17.2882    0.0000 </r>
       <r>   19.6048    0.0000 </r>
      </set>
      <set comment="kpoint 46">
       <r>   -1.6618    1.0000 </r>
       <r>    7.7071    0.0000 </r>
       <r>    7.7655    0.0000 </r>
       <r>   12.4209    0.0000 </r>
       <r>   18.1250    0.0000 </r>
       <r>   19.2059    0.0000 </r>
      </set>
      <set comment="kpoint 47">
       <r>   -0.5990    1.0000 </r>
       <r>    7.4012    0.0026 </r>
       <r>    8.7146    0.0000 </r>
       <r>    9.4177    0.0000 </r>
       <r>   14.8628    0.0000 </r>
       <r>   15.3709    0.0000 </r>
      </set>
      <set comment="kpoint 48">
       <r>    0.8759    1.0000 </r>
       <r>    5.6783    1.0000 </r>
       <r>    7.0187    0.9956 </r>
       <r>    9.0683    0.0000 </r>
       <r>   15.1461    0.0000 </r>
       <r>   17.6297    0.0000 </r>
      </set>
      <set comment="kpoint 49">
       <r>    2.3911    1.0000 </r>
       <r>    3.9527    1.0000 </r>
       <r>    5.9029    1.0000 </r>
       <r>    9.4220    0.0000 </r>
       <r>   15.5592    0.0000 </r>
       <r>   20.3915    0.0000 </r>
      </set>
      <set comment="kpoint 50">
       <r>    1.3706    1.0000 </r>
       <r>    5.2206    1.0000 </r>
       <r>    5.3433    1.0000 </r>
       <r>   10.1855    0.0000 </r>
       <r>   16.3126    0.0000 </r>
       <r>   21.8601    0.0000 </r>
      </set>
      <set comment="kpoint 51">
       <r>    1.7305    1.0000 </r>
       <r>    4.5175    1.0000 </r>
       <r>    8.2130    0.0000 </r>
       <r>    8.6200    0.0000 </r>
       <r>   14.3544    0.0000 </r>
       <r>   14.8221    0.0000 </r>
      </set>
      <set comment="kpoint 52">
       <r>    3.0991    1.0000 </r>
       <r>    3.6732    1.0000 </r>
       <r>    6.1815    1.0000 </r>
       <r>    8.7428    0.0000 </r>
       <r>   14.8866    0.0000 </r>
       <r>   17.4057    0.0000 </r>
      </set>
      <set comment="kpoint 53">
       <r>    0.1612    1.0000 </r>
       <r>    6.5381    1.0000 </r>
       <r>    6.7486    1.0000 </r>
       <r>    9.2444    0.0000 </r>
       <r>   18.0139    0.0000 </r>
       <r>   18.2734    0.0000 </r>
      </set>
      <set comment="kpoint 54">
       <r>    1.7822    1.0000 </r>
       <r>    4.3680    1.0000 </r>
       <r>    6.7481    1.0000 </r>
       <r>    8.3659    0.0000 </r>
       <r>   18.1146    0.0000 </r>
       <r>   19.6588    0.0000 </r>
      </set>
      <set comment="kpoint 55">
       <r>    2.4057    1.0000 </r>
       <r>    4.9690    1.0000 </r>
       <r>    6.2373    1.0000 </r>
       <r>    7.1958    0.5452 </r>
       <r>   17.7437    0.0000 </r>
       <r>   17.7912    0.0000 </r>
      </set>
      <set comment="kpoint 56">
       <r>    3.1839    1.0000 </r>
       <r>    4.7055    1.0000 </r>
       <r>    5.1118    1.0000 </r>
       <r>    7.3254    0.0427 </r>
       <r>   18.1638    0.0000 </r>
       <r>   20.4197    0.0000 </r>
      </set>
     </set>
    </set>
   </array>
  </eigenvalues>
  <separator name="orbital magnetization" >
   <v name="MAGDIPOLOUT">      0.00000000      0.00000000      0.00000000</v>
  </separator>
  <dos>
   <i name="efermi">      7.20381159 </i>
   <total>
    <array>
     <dimension dim="1">gridpoints</dimension>
     <dimension dim="2">spin</dimension>
     <field>energy</field>
     <field>total</field>
     <field>integrated</field>
     <set>
      <set comment="spin 1">
       <r>    -6.5170     0.0000     0.0000 </r>
       <r>    -6.4157     0.0000     0.0000 </r>
       <r>    -6.3143     0.0000     0.0000 </r>
       <r>    -6.2130     0.0000     0.0000 </r>
       <r>    -6.1117     0.0000     0.0000 </r>
       <r>    -6.0104     0.0000     0.0000 </r>
       <r>    -5.9091     0.0000     0.0000 </r>
       <r>    -5.8077     0.0000     0.0000 </r>
       <r>    -5.7064     0.0000     0.0000 </r>
       <r>    -5.6051     0.0000     0.0000 </r>
       <r>    -5.5038     0.0000     0.0000 </r>
       <r>    -5.4025     0.0000     0.0000 </r>
       <r>    -5.3011     0.0001     0.0000 </r>
       <r>    -5.1998     0.0026     0.0003 </r>
       <r>    -5.0985     0.0088     0.0012 </r>
       <r>    -4.9972     0.0269     0.0039 </r>
       <r>    -4.8959     0.0883     0.0128 </r>
       <r>    -4.7945     0.0788     0.0208 </r>
       <r>    -4.6932     0.0307     0.0239 </r>
       <r>    -4.5919     0.0786     0.0319 </r>
       <r>    -4.4906     0.1032     0.0424 </r>
       <r>    -4.3893     0.1872     0.0613 </r>
       <r>    -4.2879     0.2092     0.0825 </r>
       <r>    -4.1866     0.0598     0.0886 </r>
       <r>    -4.0853     0.0307     0.0917 </r>
       <r>    -3.9840     0.0580     0.0976 </r>
       <r>    -3.8827     0.1549     0.1133 </r>
       <r>    -3.7813     0.3379     0.1475 </r>
       <r>    -3.6800     0.1987     0.1676 </r>
       <r>    -3.5787     0.0930     0.1770 </r>
       <r>    -3.4774     0.1925     0.1965 </r>
       <r>    -3.3761     0.1818     0.2150 </r>
       <r>    -3.2747     0.2559     0.2409 </r>
       <r>    -3.1734     0.1198     0.2530 </r>
       <r>    -3.0721     0.0286     0.2559 </r>
       <r>    -2.9708     0.0874     0.2648 </r>
       <r>    -2.8695     0.1537     0.2803 </r>
       <r>    -2.7681     0.4534     0.3263 </r>
       <r>    -2.6668     0.4880     0.3757 </r>
       <r>    -2.5655     0.1437     0.3903 </r>
       <r>    -2.4642     0.1384     0.4043 </r>
       <r>    -2.3629     0.1961     0.4242 </r>
       <r>    -2.2615     0.2375     0.4482 </r>
       <r>    -2.1602     0.3324     0.4819 </r>
       <r>    -2.0589     0.1447     0.4966 </r>
       <r>    -1.9576     0.0547     0.5021 </r>
       <r>    -1.8563     0.0810     0.5103 </r>
       <r>    -1.7549     0.2613     0.5368 </r>
       <r>    -1.6536     0.5224     0.5897 </r>
       <r>    -1.5523     0.2623     0.6163 </r>
       <r>    -1.4510     0.2038     0.6369 </r>
       <r>    -1.3497     0.3994     0.6774 </r>
       <r>    -1.2483     0.4189     0.7198 </r>
       <r>    -1.1470     0.5578     0.7764 </r>
       <r>    -1.0457     0.2001     0.7966 </r>
       <r>    -0.9444     0.0218     0.7988 </r>
       <r>    -0.8431     0.0506     0.8040 </r>
       <r>    -0.7417     0.1756     0.8218 </r>
       <r>    -0.6404     0.4614     0.8685 </r>
       <r>    -0.5391     0.3745     0.9064 </r>
       <r>    -0.4378     0.1480     0.9214 </r>
       <r>    -0.3365     0.2958     0.9514 </r>
       <r>    -0.2351     0.4263     0.9946 </r>
       <r>    -0.1338     0.5868     1.0541 </r>
       <r>    -0.0325     0.3153     1.0860 </r>
       <r>     0.0688     0.0725     1.0934 </r>
       <r>     0.1701     0.2775     1.1215 </r>
       <r>     0.2715     0.6243     1.1847 </r>
       <r>     0.3728     0.8202     1.2678 </r>
       <r>     0.4741     0.6110     1.3297 </r>
       <r>     0.5754     0.1157     1.3415 </r>
       <r>     0.6767     0.0074     1.3422 </r>
       <r>     0.7781     0.1005     1.3524 </r>
       <r>     0.8794     0.4839     1.4014 </r>
       <r>     0.9807     0.4154     1.4435 </r>
       <r>     1.0820     0.0656     1.4501 </r>
       <r>     1.1833     0.0754     1.4578 </r>
       <r>     1.2847     0.4323     1.5016 </r>
       <r>     1.3860     0.7806     1.5807 </r>
       <r>     1.4873     0.4758     1.6289 </r>
       <r>     1.5886     0.1047     1.6395 </r>
       <r>     1.6899     0.1675     1.6565 </r>
       <r>     1.7913     0.5147     1.7086 </r>
       <r>     1.8926     0.4253     1.7517 </r>
       <r>     1.9939     0.3320     1.7854 </r>
       <r>     2.0952     0.2695     1.8127 </r>
       <r>     2.1965     0.0692     1.8197 </r>
       <r>     2.2979     0.1029     1.8301 </r>
       <r>     2.3992     0.5290     1.8837 </r>
       <r>     2.5005     0.5806     1.9425 </r>
       <r>     2.6018     0.2763     1.9705 </r>
       <r>     2.7031     0.1640     1.9871 </r>
       <r>     2.8045     0.2416     2.0116 </r>
       <r>     2.9058     0.4153     2.0537 </r>
       <r>     3.0071     0.5064     2.1050 </r>
       <r>     3.1084     0.6652     2.1724 </r>
       <r>     3.2097     0.5997     2.2331 </r>
       <r>     3.3111     0.3642     2.2700 </r>
       <r>     3.4124     0.1137     2.2816 </r>
       <r>     3.5137     0.0134     2.2829 </r>
       <r>     3.6150     0.0718     2.2902 </r>
       <r>     3.7163     0.2512     2.3156 </r>
       <r>     3.8177     0.4169     2.3579 </r>
       <r>     3.9190     0.6650     2.4253 </r>
       <r>     4.0203     0.6507     2.4912 </r>
       <r>     4.1216     0.3705     2.5287 </r>
       <r>     4.2229     0.3945     2.5687 </r>
       <r>     4.3243     0.6505     2.6346 </r>
       <r>     4.4256     0.5905     2.6944 </r>
       <r>     4.5269     0.4659     2.7416 </r>
       <r>     4.6282     0.5684     2.7992 </r>
       <r>     4.7295     0.4037     2.8401 </r>
       <r>     4.8308     0.2690     2.8674 </r>
       <r>     4.9322     0.2320     2.8909 </r>
       <r>     5.0335     0.4201     2.9335 </r>
       <r>     5.1348     0.6709     3.0014 </r>
       <r>     5.2361     0.6680     3.0691 </r>
       <r>     5.3374     0.6607     3.1360 </r>
       <r>     5.4388     0.2883     3.1653 </r>
       <r>     5.5401     0.0544     3.1708 </r>
       <r>     5.6414     0.1982     3.1909 </r>
       <r>     5.7427     0.4084     3.2322 </r>
       <r>     5.8440     0.4683     3.2797 </r>
       <r>     5.9454     0.7098     3.3516 </r>
       <r>     6.0467     0.3673     3.3888 </r>
       <r>     6.1480     0.3851     3.4278 </r>
       <r>     6.2493     0.7776     3.5066 </r>
       <r>     6.3506     0.6907     3.5766 </r>
       <r>     6.4520     0.2778     3.6047 </r>
       <r>     6.5533     0.3055     3.6357 </r>
       <r>     6.6546     0.4544     3.6817 </r>
       <r>     6.7559     0.9266     3.7756 </r>
       <r>     6.8572     0.9449     3.8714 </r>
       <r>     6.9586     0.3212     3.9039 </r>
       <r>     7.0599     0.3903     3.9434 </r>
       <r>     7.1612     0.3522     3.9791 </r>
       <r>     7.2625     0.5817     4.0381 </r>
       <r>     7.3638     0.6351     4.1024 </r>
       <r>     7.4652     0.3769     4.1406 </r>
       <r>     7.5665     0.1511     4.1559 </r>
       <r>     7.6678     0.2545     4.1817 </r>
       <r>     7.7691     0.6774     4.2503 </r>
       <r>     7.8704     0.4980     4.3008 </r>
       <r>     7.9718     0.1450     4.3155 </r>
       <r>     8.0731     0.4913     4.3653 </r>
       <r>     8.1744     0.8114     4.4475 </r>
       <r>     8.2757     0.6033     4.5086 </r>
       <r>     8.3770     0.6257     4.5720 </r>
       <r>     8.4784     0.5036     4.6230 </r>
       <r>     8.5797     0.4778     4.6714 </r>
       <r>     8.6810     0.8548     4.7580 </r>
       <r>     8.7823     1.0220     4.8616 </r>
       <r>     8.8836     0.3922     4.9013 </r>
       <r>     8.9850     0.2158     4.9232 </r>
       <r>     9.0863     0.6421     4.9883 </r>
       <r>     9.1876     0.9582     5.0854 </r>
       <r>     9.2889     0.8542     5.1719 </r>
       <r>     9.3902     0.6705     5.2398 </r>
       <r>     9.4916     0.7363     5.3144 </r>
       <r>     9.5929     0.2816     5.3430 </r>
       <r>     9.6942     0.3611     5.3795 </r>
       <r>     9.7955     0.5537     5.4357 </r>
       <r>     9.8968     0.5187     5.4882 </r>
       <r>     9.9982     0.2522     5.5137 </r>
       <r>    10.0995     0.3327     5.5475 </r>
       <r>    10.2008     0.9230     5.6410 </r>
       <r>    10.3021     0.6620     5.7080 </r>
       <r>    10.4034     0.5670     5.7655 </r>
       <r>    10.5048     1.1287     5.8799 </r>
       <r>    10.6061     1.4561     6.0274 </r>
       <r>    10.7074     1.1296     6.1418 </r>
       <r>    10.8087     0.5273     6.1953 </r>
       <r>    10.9100     0.4771     6.2436 </r>
       <r>    11.0114     0.3859     6.2827 </r>
       <r>    11.1127     0.4009     6.3233 </r>
       <r>    11.2140     0.4272     6.3666 </r>
       <r>    11.3153     0.5430     6.4216 </r>
       <r>    11.4166     0.3720     6.4593 </r>
       <r>    11.5180     0.2232     6.4819 </r>
       <r>    11.6193     0.1789     6.5000 </r>
       <r>    11.7206     0.5024     6.5509 </r>
       <r>    11.8219     0.9460     6.6468 </r>
       <r>    11.9232     1.0999     6.7582 </r>
       <r>    12.0246     0.6973     6.8289 </r>
       <r>    12.1259     0.4912     6.8786 </r>
       <r>    12.2272     0.5332     6.9327 </r>
       <r>    12.3285     0.3436     6.9675 </r>
       <r>    12.4298     0.2450     6.9923 </r>
       <r>    12.5312     0.4191     7.0348 </r>
       <r>    12.6325     0.8538     7.1213 </r>
       <r>    12.7338     0.8126     7.2036 </r>
       <r>    12.8351     0.6488     7.2694 </r>
       <r>    12.9364     0.6545     7.3357 </r>
       <r>    13.0378     0.5843     7.3949 </r>
       <r>    13.1391     0.4602     7.4415 </r>
       <r>    13.2404     0.4337     7.4854 </r>
       <r>    13.3417     0.4757     7.5336 </r>
       <r>    13.4430     0.2253     7.5565 </r>
       <r>    13.5444     0.2524     7.5820 </r>
       <r>    13.6457     0.6387     7.6467 </r>
       <r>    13.7470     0.7392     7.7216 </r>
       <r>    13.8483     0.9713     7.8201 </r>
       <r>    13.9496     0.7772     7.8988 </r>
       <r>    14.0510     0.4916     7.9486 </r>
       <r>    14.1523     0.3173     7.9808 </r>
       <r>    14.2536     0.1920     8.0002 </r>
       <r>    14.3549     0.2539     8.0259 </r>
       <r>    14.4562     0.4545     8.0720 </r>
       <r>    14.5576     0.4890     8.1215 </r>
       <r>    14.6589     0.6038     8.1827 </r>
       <r>    14.7602     0.8654     8.2704 </r>
       <r>    14.8615     0.7957     8.3510 </r>
       <r>    14.9628     0.6112     8.4129 </r>
       <r>    15.0642     0.4769     8.4613 </r>
       <r>    15.1655     0.6377     8.5259 </r>
       <r>    15.2668     0.6928     8.5961 </r>
       <r>    15.3681     0.8030     8.6774 </r>
       <r>    15.4694     0.6196     8.7402 </r>
       <r>    15.5708     0.6185     8.8029 </r>
       <r>    15.6721     0.5065     8.8542 </r>
       <r>    15.7734     0.2681     8.8813 </r>
       <r>    15.8747     0.4150     8.9234 </r>
       <r>    15.9760     0.6538     8.9896 </r>
       <r>    16.0774     0.7251     9.0631 </r>
       <r>    16.1787     0.4112     9.1048 </r>
       <r>    16.2800     0.1553     9.1205 </r>
       <r>    16.3813     0.2107     9.1418 </r>
       <r>    16.4826     0.3769     9.1800 </r>
       <r>    16.5840     0.7131     9.2523 </r>
       <r>    16.6853     0.4063     9.2934 </r>
       <r>    16.7866     0.3389     9.3278 </r>
       <r>    16.8879     0.3029     9.3585 </r>
       <r>    16.9892     0.3930     9.3983 </r>
       <r>    17.0906     0.7883     9.4782 </r>
       <r>    17.1919     0.7092     9.5500 </r>
       <r>    17.2932     1.2233     9.6740 </r>
       <r>    17.3945     1.5798     9.8340 </r>
       <r>    17.4958     0.7663     9.9117 </r>
       <r>    17.5972     0.5450     9.9669 </r>
       <r>    17.6985     0.7328    10.0411 </r>
       <r>    17.7998     0.6324    10.1052 </r>
       <r>    17.9011     0.4143    10.1472 </r>
       <r>    18.0024     0.2907    10.1766 </r>
       <r>    18.1038     0.7150    10.2491 </r>
       <r>    18.2051     1.0737    10.3579 </r>
       <r>    18.3064     1.1384    10.4732 </r>
       <r>    18.4077     1.0299    10.5776 </r>
       <r>    18.5090     0.5121    10.6294 </r>
       <r>    18.6104     0.3595    10.6659 </r>
       <r>    18.7117     0.7590    10.7428 </r>
       <r>    18.8130     0.6088    10.8045 </r>
       <r>    18.9143     0.3405    10.8390 </r>
       <r>    19.0156     0.6889    10.9088 </r>
       <r>    19.1170     0.8097    10.9908 </r>
       <r>    19.2183     0.7680    11.0686 </r>
       <r>    19.3196     0.6319    11.1326 </r>
       <r>    19.4209     0.3066    11.1637 </r>
       <r>    19.5222     0.1710    11.1810 </r>
       <r>    19.6236     0.7683    11.2589 </r>
       <r>    19.7249     1.0027    11.3605 </r>
       <r>    19.8262     0.4956    11.4107 </r>
       <r>    19.9275     0.4588    11.4572 </r>
       <r>    20.0288     0.6054    11.5185 </r>
       <r>    20.1302     0.9451    11.6143 </r>
       <r>    20.2315     0.4139    11.6562 </r>
       <r>    20.3328     0.3129    11.6879 </r>
       <r>    20.4341     0.8677    11.7758 </r>
       <r>    20.5354     0.7623    11.8530 </r>
       <r>    20.6368     0.3164    11.8851 </r>
       <r>    20.7381     0.1920    11.9045 </r>
       <r>    20.8394     0.0500    11.9096 </r>
       <r>    20.9407     0.0023    11.9098 </r>
       <r>    21.0420     0.0000    11.9098 </r>
       <r>    21.1434     0.0000    11.9098 </r>
       <r>    21.2447     0.0000    11.9098 </r>
       <r>    21.3460     0.0000    11.9098 </r>
       <r>    21.4473     0.0000    11.9098 </r>
       <r>    21.5486     0.0000    11.9098 </r>
       <r>    21.6500     0.0007    11.9099 </r>
       <r>    21.7513     0.0311    11.9131 </r>
       <r>    21.8526     0.2085    11.9342 </r>
       <r>    21.9539     0.2425    11.9588 </r>
       <r>    22.0552     0.0494    11.9638 </r>
       <r>    22.1565     0.0016    11.9639 </r>
       <r>    22.2579     0.0001    11.9639 </r>
       <r>    22.3592     0.0089    11.9649 </r>
       <r>    22.4605     0.0982    11.9748 </r>
       <r>    22.5618     0.1843    11.9935 </r>
       <r>    22.6631     0.0610    11.9997 </r>
       <r>    22.7645     0.0034    12.0000 </r>
       <r>    22.8658     0.0000    12.0000 </r>
       <r>    22.9671     0.0000    12.0000 </r>
       <r>    23.0684     0.0000    12.0000 </r>
       <r>    23.1697     0.0000    12.0000 </r>
       <r>    23.2711     0.0000    12.0000 </r>
       <r>    23.3724     0.0000    12.0000 </r>
       <r>    23.4737     0.0000    12.0000 </r>
       <r>    23.5750     0.0000    12.0000 </r>
       <r>    23.6763     0.0000    12.0000 </r>
       <r>    23.7777     0.0000    12.0000 </r>
       <r>    23.8790     0.0000    12.0000 </r>
      </set>
     </set>
    </array>
   </total>
  </dos>
 </calculation>
 <structure name="finalpos" >
  <crystal>
   <varray name="basis" >
    <v>       2.09191400       2.09191400       0.00000000 </v>
    <v>       0.00000000       2.09191400       2.09191400 </v>
    <v>       2.09191400       0.00000000       2.09191400 </v>
   </varray>
   <i name="volume">     18.30886734 </i>
   <varray name="rec_basis" >
    <v>       0.23901556       0.23901556      -0.23901556 </v>
    <v>      -0.23901556       0.23901556       0.23901556 </v>
    <v>       0.23901556      -0.23901556       0.23901556 </v>
   </varray>
  </crystal>
  <varray name="positions" >
   <v>       0.00000000       0.00000000       0.00000000 </v>
  </varray>
 </structure>
</modeling>
