fcc Si                                  
           1
     2.091914    2.091914    0.000000
     0.000000    2.091914    2.091914
     2.091914    0.000000    2.091914
   Si
   1
Direct configuration=     1
   0.00000000  0.00000000  0.00000000
