a= 3.5
 running on    1 total cores
 distrk:  each k-point on    1 cores,    1 groups
 distr:  one band on    1 cores,    1 groups
 using from now: INCAR     
 vasp.5.3.5 31Mar14 (build Feb  5 2015 19:39:53) complex                        
  
 POSCAR found type information on POSCAR  Si
 POSCAR found :  1 types and       1 ions
 scaLAPACK will be used
 LDA part: xc-table for Ceperly-Alder, standard interpolation
 POSCAR, INCAR and KPOINTS ok, starting setup
 WARNING: small aliasing (wrap around) errors must be expected
 FFT: planning ...
 WAVECAR not read
 entering main loop
       N       E                     dE             d eps       ncg     rms          rms(c)
DAV:   1    -0.219986246436E+01   -0.21999E+01   -0.14485E+03   840   0.295E+02
DAV:   2    -0.314493055754E+01   -0.94507E+00   -0.88157E+00  1014   0.249E+01
DAV:   3    -0.314602906645E+01   -0.10985E-02   -0.10985E-02   780   0.829E-01
DAV:   4    -0.314602930051E+01   -0.23406E-06   -0.23265E-06   948   0.105E-02
DAV:   5    -0.314602929744E+01    0.30707E-08   -0.57466E-10   618   0.104E-04    0.164E+00
DAV:   6    -0.307238973281E+01    0.73640E-01   -0.32595E-03   744   0.456E-01    0.100E+00
DAV:   7    -0.302868826077E+01    0.43701E-01   -0.84112E-03   750   0.730E-01    0.229E-02
DAV:   8    -0.302869273383E+01   -0.44731E-05   -0.50567E-06   750   0.219E-02
   1 F= -.30286927E+01 E0= -.30281867E+01  d E =-.101207E-02
 writing wavefunctions
a= 3.6
 running on    1 total cores
 distrk:  each k-point on    1 cores,    1 groups
 distr:  one band on    1 cores,    1 groups
 using from now: INCAR     
 vasp.5.3.5 31Mar14 (build Feb  5 2015 19:39:53) complex                        
  
 POSCAR found type information on POSCAR  Si
 POSCAR found :  1 types and       1 ions
 scaLAPACK will be used
 LDA part: xc-table for Ceperly-Alder, standard interpolation
 POSCAR, INCAR and KPOINTS ok, starting setup
 WARNING: small aliasing (wrap around) errors must be expected
 FFT: planning ...
 WAVECAR not read
 entering main loop
       N       E                     dE             d eps       ncg     rms          rms(c)
DAV:   1    -0.226046508666E+01   -0.22605E+01   -0.14468E+03   792   0.296E+02
DAV:   2    -0.387576009880E+01   -0.16153E+01   -0.15515E+01   996   0.286E+01
DAV:   3    -0.388075884765E+01   -0.49987E-02   -0.49987E-02   774   0.153E+00
DAV:   4    -0.388076036213E+01   -0.15145E-05   -0.15150E-05   954   0.251E-02
DAV:   5    -0.388076036380E+01   -0.16749E-08   -0.47248E-09   690   0.285E-04    0.148E+00
DAV:   6    -0.382376803416E+01    0.56992E-01   -0.33849E-03   720   0.440E-01    0.899E-01
DAV:   7    -0.378974489349E+01    0.34023E-01   -0.85444E-03   720   0.697E-01    0.229E-02
DAV:   8    -0.378975091097E+01   -0.60175E-05   -0.57476E-06   768   0.230E-02
   1 F= -.37897509E+01 E0= -.37891007E+01  d E =-.130037E-02
 writing wavefunctions
a= 3.7
 running on    1 total cores
 distrk:  each k-point on    1 cores,    1 groups
 distr:  one band on    1 cores,    1 groups
 using from now: INCAR     
 vasp.5.3.5 31Mar14 (build Feb  5 2015 19:39:53) complex                        
  
 POSCAR found type information on POSCAR  Si
 POSCAR found :  1 types and       1 ions
 scaLAPACK will be used
 LDA part: xc-table for Ceperly-Alder, standard interpolation
 POSCAR, INCAR and KPOINTS ok, starting setup
 WARNING: small aliasing (wrap around) errors must be expected
 FFT: planning ...
 WAVECAR not read
 entering main loop
       N       E                     dE             d eps       ncg     rms          rms(c)
DAV:   1    -0.308575739684E+01   -0.30858E+01   -0.13511E+03   810   0.294E+02
DAV:   2    -0.442142182492E+01   -0.13357E+01   -0.12272E+01   954   0.259E+01
DAV:   3    -0.442619605922E+01   -0.47742E-02   -0.47739E-02   786   0.145E+00
DAV:   4    -0.442619781715E+01   -0.17579E-05   -0.17586E-05   960   0.223E-02
DAV:   5    -0.442619781990E+01   -0.27464E-08   -0.17323E-09   696   0.180E-04    0.133E+00
DAV:   6    -0.438106195619E+01    0.45136E-01   -0.37246E-03   714   0.434E-01    0.807E-01
DAV:   7    -0.435412291437E+01    0.26939E-01   -0.90548E-03   732   0.677E-01    0.236E-02
DAV:   8    -0.435412383796E+01   -0.92359E-06   -0.82814E-06   744   0.276E-02
   1 F= -.43541238E+01 E0= -.43537314E+01  d E =-.784907E-03
 writing wavefunctions
a= 3.8
 running on    1 total cores
 distrk:  each k-point on    1 cores,    1 groups
 distr:  one band on    1 cores,    1 groups
 using from now: INCAR     
 vasp.5.3.5 31Mar14 (build Feb  5 2015 19:39:53) complex                        
  
 POSCAR found type information on POSCAR  Si
 POSCAR found :  1 types and       1 ions
 scaLAPACK will be used
 LDA part: xc-table for Ceperly-Alder, standard interpolation
 POSCAR, INCAR and KPOINTS ok, starting setup
 WARNING: small aliasing (wrap around) errors must be expected
 FFT: planning ...
 WAVECAR not read
 entering main loop
       N       E                     dE             d eps       ncg     rms          rms(c)
DAV:   1    -0.343526318937E+01   -0.34353E+01   -0.13453E+03   774   0.290E+02
DAV:   2    -0.482220591679E+01   -0.13869E+01   -0.13565E+01   978   0.268E+01
DAV:   3    -0.482799200069E+01   -0.57861E-02   -0.57860E-02   774   0.160E+00
DAV:   4    -0.482799429647E+01   -0.22958E-05   -0.22981E-05   966   0.309E-02
DAV:   5    -0.482799429877E+01   -0.23019E-08   -0.19253E-09   648   0.219E-04    0.121E+00
DAV:   6    -0.479135093492E+01    0.36643E-01   -0.41872E-03   738   0.434E-01    0.733E-01
DAV:   7    -0.476961854781E+01    0.21732E-01   -0.97852E-03   732   0.665E-01    0.255E-02
DAV:   8    -0.476960997208E+01    0.85757E-05   -0.13020E-05   666   0.344E-02
   1 F= -.47696100E+01 E0= -.47694742E+01  d E =-.271554E-03
 writing wavefunctions
a= 3.9
 running on    1 total cores
 distrk:  each k-point on    1 cores,    1 groups
 distr:  one band on    1 cores,    1 groups
 using from now: INCAR     
 vasp.5.3.5 31Mar14 (build Feb  5 2015 19:39:53) complex                        
  
 POSCAR found type information on POSCAR  Si
 POSCAR found :  1 types and       1 ions
 scaLAPACK will be used
 LDA part: xc-table for Ceperly-Alder, standard interpolation
 POSCAR, INCAR and KPOINTS ok, starting setup
 WARNING: small aliasing (wrap around) errors must be expected
 FFT: planning ...
 WAVECAR not read
 entering main loop
       N       E                     dE             d eps       ncg     rms          rms(c)
DAV:   1    -0.388562348560E+01   -0.38856E+01   -0.12838E+03   774   0.289E+02
DAV:   2    -0.510965659937E+01   -0.12240E+01   -0.12138E+01   990   0.267E+01
DAV:   3    -0.511340803205E+01   -0.37514E-02   -0.37511E-02   786   0.142E+00
DAV:   4    -0.511340979685E+01   -0.17648E-05   -0.17649E-05   960   0.283E-02
DAV:   5    -0.511340979754E+01   -0.68711E-09   -0.39936E-09   696   0.259E-04    0.111E+00
DAV:   6    -0.508356093552E+01    0.29849E-01   -0.44585E-03   732   0.427E-01    0.663E-01
DAV:   7    -0.506621714173E+01    0.17344E-01   -0.98064E-03   726   0.636E-01    0.303E-02
DAV:   8    -0.506619006298E+01    0.27079E-04   -0.24993E-05   648   0.439E-02
   1 F= -.50661901E+01 E0= -.50643254E+01  d E =-.372939E-02
 writing wavefunctions
a= 4.0
 running on    1 total cores
 distrk:  each k-point on    1 cores,    1 groups
 distr:  one band on    1 cores,    1 groups
 using from now: INCAR     
 vasp.5.3.5 31Mar14 (build Feb  5 2015 19:39:53) complex                        
  
 POSCAR found type information on POSCAR  Si
 POSCAR found :  1 types and       1 ions
 scaLAPACK will be used
 LDA part: xc-table for Ceperly-Alder, standard interpolation
 POSCAR, INCAR and KPOINTS ok, starting setup
 WARNING: small aliasing (wrap around) errors must be expected
 FFT: planning ...
 WAVECAR not read
 entering main loop
       N       E                     dE             d eps       ncg     rms          rms(c)
DAV:   1    -0.403651460589E+01   -0.40365E+01   -0.12910E+03   756   0.290E+02
DAV:   2    -0.531181454732E+01   -0.12753E+01   -0.12615E+01   954   0.268E+01
DAV:   3    -0.531726197673E+01   -0.54474E-02   -0.54471E-02   798   0.170E+00
DAV:   4    -0.531726500194E+01   -0.30252E-05   -0.30237E-05   972   0.373E-02
DAV:   5    -0.531726500259E+01   -0.64907E-09   -0.10438E-08   696   0.421E-04    0.985E-01
DAV:   6    -0.529367631522E+01    0.23589E-01   -0.41384E-03   732   0.401E-01    0.591E-01
DAV:   7    -0.527995402717E+01    0.13722E-01   -0.91872E-03   720   0.599E-01    0.250E-02
DAV:   8    -0.527993497437E+01    0.19053E-04   -0.19515E-05   624   0.415E-02
   1 F= -.52799350E+01 E0= -.52786616E+01  d E =-.254680E-02
 writing wavefunctions
a= 4.1
 running on    1 total cores
 distrk:  each k-point on    1 cores,    1 groups
 distr:  one band on    1 cores,    1 groups
 using from now: INCAR     
 vasp.5.3.5 31Mar14 (build Feb  5 2015 19:39:53) complex                        
  
 POSCAR found type information on POSCAR  Si
 POSCAR found :  1 types and       1 ions
 scaLAPACK will be used
 LDA part: xc-table for Ceperly-Alder, standard interpolation
 POSCAR, INCAR and KPOINTS ok, starting setup
 WARNING: small aliasing (wrap around) errors must be expected
 FFT: planning ...
 WAVECAR not read
 entering main loop
       N       E                     dE             d eps       ncg     rms          rms(c)
DAV:   1    -0.383690838613E+01   -0.38369E+01   -0.12597E+03   780   0.289E+02
DAV:   2    -0.542993995476E+01   -0.15930E+01   -0.15335E+01   978   0.271E+01
DAV:   3    -0.544262929611E+01   -0.12689E-01   -0.12675E-01   822   0.211E+00
DAV:   4    -0.544263489582E+01   -0.55997E-05   -0.55994E-05   942   0.432E-02
DAV:   5    -0.544263489944E+01   -0.36247E-08   -0.31135E-08   762   0.667E-04    0.913E-01
DAV:   6    -0.542210099666E+01    0.20534E-01   -0.45949E-03   696   0.406E-01    0.545E-01
DAV:   7    -0.541042713600E+01    0.11674E-01   -0.97646E-03   720   0.593E-01    0.259E-02
DAV:   8    -0.541040081056E+01    0.26325E-04   -0.24586E-05   678   0.456E-02
   1 F= -.54104008E+01 E0= -.54084975E+01  d E =-.380662E-02
 writing wavefunctions
a= 4.2
 running on    1 total cores
 distrk:  each k-point on    1 cores,    1 groups
 distr:  one band on    1 cores,    1 groups
 using from now: INCAR     
 vasp.5.3.5 31Mar14 (build Feb  5 2015 19:39:53) complex                        
  
 POSCAR found type information on POSCAR  Si
 POSCAR found :  1 types and       1 ions
 scaLAPACK will be used
 LDA part: xc-table for Ceperly-Alder, standard interpolation
 POSCAR, INCAR and KPOINTS ok, starting setup
 WARNING: small aliasing (wrap around) errors must be expected
 FFT: planning ...
 WAVECAR not read
 entering main loop
       N       E                     dE             d eps       ncg     rms          rms(c)
DAV:   1    -0.420862305339E+01   -0.42086E+01   -0.12875E+03   774   0.286E+02
DAV:   2    -0.549669604053E+01   -0.12881E+01   -0.12705E+01   936   0.254E+01
DAV:   3    -0.550488832271E+01   -0.81923E-02   -0.81303E-02   786   0.190E+00
DAV:   4    -0.550489401522E+01   -0.56925E-05   -0.56913E-05   978   0.449E-02
DAV:   5    -0.550489401872E+01   -0.34910E-08   -0.37120E-08   732   0.814E-04    0.837E-01
DAV:   6    -0.548707108499E+01    0.17823E-01   -0.48665E-03   738   0.405E-01    0.495E-01
DAV:   7    -0.547721736996E+01    0.98537E-02   -0.98418E-03   708   0.576E-01    0.267E-02
DAV:   8    -0.547718525856E+01    0.32111E-04   -0.28233E-05   684   0.487E-02
   1 F= -.54771853E+01 E0= -.54753699E+01  d E =-.363071E-02
 writing wavefunctions
a= 4.3
 running on    1 total cores
 distrk:  each k-point on    1 cores,    1 groups
 distr:  one band on    1 cores,    1 groups
 using from now: INCAR     
 vasp.5.3.5 31Mar14 (build Feb  5 2015 19:39:53) complex                        
  
 POSCAR found type information on POSCAR  Si
 POSCAR found :  1 types and       1 ions
 scaLAPACK will be used
 LDA part: xc-table for Ceperly-Alder, standard interpolation
 POSCAR, INCAR and KPOINTS ok, starting setup
 WARNING: small aliasing (wrap around) errors must be expected
 FFT: planning ...
 WAVECAR not read
 entering main loop
       N       E                     dE             d eps       ncg     rms          rms(c)
DAV:   1    -0.393308789150E+01   -0.39331E+01   -0.12446E+03   762   0.283E+02
DAV:   2    -0.551335300925E+01   -0.15803E+01   -0.14884E+01   942   0.264E+01
DAV:   3    -0.552248467574E+01   -0.91317E-02   -0.91251E-02   762   0.209E+00
DAV:   4    -0.552249315162E+01   -0.84759E-05   -0.84760E-05   984   0.672E-02
DAV:   5    -0.552249315408E+01   -0.24631E-08   -0.24827E-08   714   0.743E-04    0.776E-01
DAV:   6    -0.550663007231E+01    0.15863E-01   -0.50606E-03   768   0.404E-01    0.458E-01
DAV:   7    -0.549803224040E+01    0.85978E-02   -0.10006E-02   702   0.568E-01    0.266E-02
DAV:   8    -0.549799979631E+01    0.32444E-04   -0.30911E-05   690   0.509E-02
   1 F= -.54979998E+01 E0= -.54966879E+01  d E =-.262383E-02
 writing wavefunctions
a= 4.4
 running on    1 total cores
 distrk:  each k-point on    1 cores,    1 groups
 distr:  one band on    1 cores,    1 groups
 using from now: INCAR     
 vasp.5.3.5 31Mar14 (build Feb  5 2015 19:39:53) complex                        
  
 POSCAR found type information on POSCAR  Si
 POSCAR found :  1 types and       1 ions
 scaLAPACK will be used
 LDA part: xc-table for Ceperly-Alder, standard interpolation
 POSCAR, INCAR and KPOINTS ok, starting setup
 WARNING: small aliasing (wrap around) errors must be expected
 FFT: planning ...
 WAVECAR not read
 entering main loop
       N       E                     dE             d eps       ncg     rms          rms(c)
DAV:   1    -0.404771246067E+01   -0.40477E+01   -0.12002E+03   750   0.284E+02
DAV:   2    -0.549269463195E+01   -0.14450E+01   -0.13630E+01  1020   0.255E+01
DAV:   3    -0.550154842272E+01   -0.88538E-02   -0.88497E-02   810   0.190E+00
DAV:   4    -0.550155722871E+01   -0.88060E-05   -0.88063E-05   972   0.585E-02
DAV:   5    -0.550155723035E+01   -0.16434E-08   -0.14304E-08   726   0.597E-04    0.731E-01
DAV:   6    -0.548707967654E+01    0.14478E-01   -0.53037E-03   732   0.406E-01    0.428E-01
DAV:   7    -0.547950944575E+01    0.75702E-02   -0.10011E-02   720   0.557E-01    0.282E-02
DAV:   8    -0.547947332720E+01    0.36119E-04   -0.35504E-05   636   0.533E-02
   1 F= -.54794733E+01 E0= -.54780716E+01  d E =-.280340E-02
 writing wavefunctions
a= 4.5
 running on    1 total cores
 distrk:  each k-point on    1 cores,    1 groups
 distr:  one band on    1 cores,    1 groups
 using from now: INCAR     
 vasp.5.3.5 31Mar14 (build Feb  5 2015 19:39:53) complex                        
  
 POSCAR found type information on POSCAR  Si
 POSCAR found :  1 types and       1 ions
 scaLAPACK will be used
 LDA part: xc-table for Ceperly-Alder, standard interpolation
 POSCAR, INCAR and KPOINTS ok, starting setup
 WARNING: small aliasing (wrap around) errors must be expected
 FFT: planning ...
 WAVECAR not read
 entering main loop
       N       E                     dE             d eps       ncg     rms          rms(c)
DAV:   1    -0.376380275357E+01   -0.37638E+01   -0.11821E+03   786   0.281E+02
DAV:   2    -0.544088775951E+01   -0.16771E+01   -0.14933E+01   942   0.262E+01
DAV:   3    -0.545199119822E+01   -0.11103E-01   -0.11086E-01   786   0.223E+00
DAV:   4    -0.545200533725E+01   -0.14139E-04   -0.14139E-04  1032   0.761E-02
DAV:   5    -0.545200534234E+01   -0.50915E-08   -0.52440E-08   696   0.104E-03    0.692E-01
DAV:   6    -0.543867731231E+01    0.13328E-01   -0.54674E-03   762   0.406E-01    0.405E-01
DAV:   7    -0.543181507430E+01    0.68622E-02   -0.10249E-02   732   0.554E-01    0.266E-02
DAV:   8    -0.543178359913E+01    0.31475E-04   -0.35091E-05   624   0.535E-02
   1 F= -.54317836E+01 E0= -.54312226E+01  d E =-.112207E-02
 writing wavefunctions
a= 4.6
 running on    1 total cores
 distrk:  each k-point on    1 cores,    1 groups
 distr:  one band on    1 cores,    1 groups
 using from now: INCAR     
 vasp.5.3.5 31Mar14 (build Feb  5 2015 19:39:53) complex                        
  
 POSCAR found type information on POSCAR  Si
 POSCAR found :  1 types and       1 ions
 scaLAPACK will be used
 LDA part: xc-table for Ceperly-Alder, standard interpolation
 POSCAR, INCAR and KPOINTS ok, starting setup
 WARNING: small aliasing (wrap around) errors must be expected
 FFT: planning ...
 WAVECAR not read
 entering main loop
       N       E                     dE             d eps       ncg     rms          rms(c)
DAV:   1    -0.297928632207E+01   -0.29793E+01   -0.10958E+03   732   0.274E+02
DAV:   2    -0.535147222903E+01   -0.23722E+01   -0.20887E+01   936   0.278E+01
DAV:   3    -0.537651217503E+01   -0.25040E-01   -0.25039E-01   816   0.324E+00
DAV:   4    -0.537653644907E+01   -0.24274E-04   -0.24274E-04   996   0.101E-01
DAV:   5    -0.537653645867E+01   -0.96057E-08   -0.98624E-08   720   0.159E-03    0.672E-01
DAV:   6    -0.536344387093E+01    0.13093E-01   -0.59804E-03   750   0.419E-01    0.390E-01
DAV:   7    -0.535689613838E+01    0.65477E-02   -0.10917E-02   726   0.563E-01    0.267E-02
DAV:   8    -0.535686512987E+01    0.31009E-04   -0.39312E-05   672   0.564E-02
   1 F= -.53568651E+01 E0= -.53560356E+01  d E =-.165909E-02
 writing wavefunctions
a= 4.7
 running on    1 total cores
 distrk:  each k-point on    1 cores,    1 groups
 distr:  one band on    1 cores,    1 groups
 using from now: INCAR     
 vasp.5.3.5 31Mar14 (build Feb  5 2015 19:39:53) complex                        
  
 POSCAR found type information on POSCAR  Si
 POSCAR found :  1 types and       1 ions
 scaLAPACK will be used
 LDA part: xc-table for Ceperly-Alder, standard interpolation
 POSCAR, INCAR and KPOINTS ok, starting setup
 WARNING: small aliasing (wrap around) errors must be expected
 FFT: planning ...
 WAVECAR not read
 entering main loop
       N       E                     dE             d eps       ncg     rms          rms(c)
DAV:   1    -0.377299038310E+01   -0.37730E+01   -0.11134E+03   726   0.274E+02
DAV:   2    -0.526440964278E+01   -0.14914E+01   -0.14105E+01   954   0.244E+01
DAV:   3    -0.527982265127E+01   -0.15413E-01   -0.15411E-01   840   0.245E+00
DAV:   4    -0.527984280407E+01   -0.20153E-04   -0.20152E-04   942   0.859E-02
DAV:   5    -0.527984283062E+01   -0.26554E-07   -0.26576E-07   798   0.238E-03    0.656E-01
DAV:   6    -0.526688181571E+01    0.12961E-01   -0.64782E-03   738   0.430E-01    0.378E-01
DAV:   7    -0.526061359319E+01    0.62682E-02   -0.11437E-02   720   0.568E-01    0.280E-02
DAV:   8    -0.526058303364E+01    0.30560E-04   -0.44637E-05   696   0.600E-02
   1 F= -.52605830E+01 E0= -.52591611E+01  d E =-.284382E-02
 writing wavefunctions
3.5 1 F= -.30286927E+01 E0= -.30281867E+01 d E =-.101207E-02
3.6 1 F= -.37897509E+01 E0= -.37891007E+01 d E =-.130037E-02
3.7 1 F= -.43541238E+01 E0= -.43537314E+01 d E =-.784907E-03
3.8 1 F= -.47696100E+01 E0= -.47694742E+01 d E =-.271554E-03
3.9 1 F= -.50661901E+01 E0= -.50643254E+01 d E =-.372939E-02
4.0 1 F= -.52799350E+01 E0= -.52786616E+01 d E =-.254680E-02
4.1 1 F= -.54104008E+01 E0= -.54084975E+01 d E =-.380662E-02
4.2 1 F= -.54771853E+01 E0= -.54753699E+01 d E =-.363071E-02
4.3 1 F= -.54979998E+01 E0= -.54966879E+01 d E =-.262383E-02
4.4 1 F= -.54794733E+01 E0= -.54780716E+01 d E =-.280340E-02
4.5 1 F= -.54317836E+01 E0= -.54312226E+01 d E =-.112207E-02
4.6 1 F= -.53568651E+01 E0= -.53560356E+01 d E =-.165909E-02
4.7 1 F= -.52605830E+01 E0= -.52591611E+01 d E =-.284382E-02
