fcc Si                                  
   4.20000000000000     
     0.445088    0.445088    0.000000
     0.000000    0.445088    0.445088
     0.445088    0.000000    0.445088
   Si
     1
Direct
  0.000000  0.000000  0.000000
 
   20   20   20
 -.23545123683E+01 -.16693846225E+01 0.11460875063E+00 0.23219016948E+01 0.42054255860E+01
 0.52807501401E+01 0.54874583860E+01 0.51251058239E+01 0.46351097292E+01 0.42869751542E+01
 0.41625032497E+01 0.42869751542E+01 0.46351097292E+01 0.51251058239E+01 0.54874583860E+01
 0.52807501401E+01 0.42054255860E+01 0.23219016948E+01 0.11460875063E+00 -.16693846225E+01
 -.16693846225E+01 -.43716170531E+00 0.15405522677E+01 0.35382032753E+01 0.49378774401E+01
 0.54815530985E+01 0.53128757725E+01 0.48265108977E+01 0.43953381468E+01 0.41553628758E+01
 0.41553973603E+01 0.43953969721E+01 0.48265094067E+01 0.53128094779E+01 0.54815537710E+01
 0.49380363551E+01 0.35383620818E+01 0.15404486131E+01 -.43749409551E+00 -.16695723314E+01
 0.11460875063E+00 0.15405522677E+01 0.32700668034E+01 0.46827867782E+01 0.53948362515E+01
 0.53902596743E+01 0.49550408103E+01 0.44714845717E+01 0.41372597475E+01 0.40186864027E+01
 0.41372322447E+01 0.44714671375E+01 0.49550632710E+01 0.53902988658E+01 0.53948430176E+01
 0.46827696522E+01 0.32701077543E+01 0.15406890644E+01 0.11474407434E+00 -.43749409551E+00
 0.23219016948E+01 0.35382032753E+01 0.46827867782E+01 0.53483057322E+01 0.54062924185E+01
 0.50212613556E+01 0.45160061586E+01 0.41157254546E+01 0.38980081236E+01 0.38979628945E+01
 0.41156533687E+01 0.45160161661E+01 0.50213493484E+01 0.54063126964E+01 0.53481892067E+01
 0.46827277269E+01 0.35384546225E+01 0.23223668697E+01 0.15406890644E+01 0.15404486131E+01
 0.42054255860E+01 0.49378774401E+01 0.53948362515E+01 0.54062924185E+01 0.50403690326E+01
 0.45354842548E+01 0.40988956149E+01 0.38100873391E+01 0.37095533237E+01 0.38100722839E+01
 0.40988959902E+01 0.45355158238E+01 0.50404103309E+01 0.54063198294E+01 0.53948663703E+01
 0.49379510634E+01 0.42055412599E+01 0.35384546225E+01 0.32701077543E+01 0.35383620818E+01
 0.52807501401E+01 0.54815530985E+01 0.53902596743E+01 0.50212613556E+01 0.45354842548E+01
 0.40926365353E+01 0.37644121167E+01 0.35913943873E+01 0.35914077334E+01 0.37644346167E+01
 0.40926506640E+01 0.45355093852E+01 0.50213264556E+01 0.53903432621E+01 0.54815887976E+01
 0.52807038295E+01 0.49379510634E+01 0.46827277269E+01 0.46827696522E+01 0.49380363551E+01
 0.54874583860E+01 0.53128757725E+01 0.49550408103E+01 0.45160061586E+01 0.40988956149E+01
 0.37644121167E+01 0.35514539697E+01 0.34787752636E+01 0.35514760453E+01 0.37644214357E+01
 0.40988777570E+01 0.45159883913E+01 0.49550482431E+01 0.53129071988E+01 0.54874961691E+01
 0.54815887976E+01 0.53948663703E+01 0.53481892067E+01 0.53948430176E+01 0.54815537710E+01
 0.51251058239E+01 0.48265108977E+01 0.44714845717E+01 0.41157254546E+01 0.38100873391E+01
 0.35913943873E+01 0.34787752636E+01 0.34787872143E+01 0.35914071021E+01 0.38100574485E+01
 0.41156462593E+01 0.44714178341E+01 0.48265267107E+01 0.51252002914E+01 0.53129071988E+01
 0.53903432621E+01 0.54063198294E+01 0.54063126964E+01 0.53902988658E+01 0.53128094779E+01
 0.46351097292E+01 0.43953381468E+01 0.41372597475E+01 0.38980081236E+01 0.37095533237E+01
 0.35914077334E+01 0.35514760453E+01 0.35914071021E+01 0.37095426738E+01 0.38979900857E+01
 0.41372539514E+01 0.43953610119E+01 0.46351473815E+01 0.48265267107E+01 0.49550482431E+01
 0.50213264556E+01 0.50404103309E+01 0.50213493484E+01 0.49550632710E+01 0.48265094067E+01
 0.42869751542E+01 0.41553628758E+01 0.40186864027E+01 0.38979628945E+01 0.38100722839E+01
 0.37644346167E+01 0.37644214357E+01 0.38100574485E+01 0.38979900857E+01 0.40187625728E+01
 0.41554393525E+01 0.42869963134E+01 0.43953610119E+01 0.44714178341E+01 0.45159883913E+01
 0.45355093852E+01 0.45355158238E+01 0.45160161661E+01 0.44714671375E+01 0.43953969721E+01
 0.41625032497E+01 0.41553973603E+01 0.41372322447E+01 0.41156533687E+01 0.40988959902E+01
 0.40926506640E+01 0.40988777570E+01 0.41156462593E+01 0.41372539514E+01 0.41554393525E+01
 0.41625508732E+01 0.41554393525E+01 0.41372539514E+01 0.41156462593E+01 0.40988777570E+01
 0.40926506640E+01 0.40988959902E+01 0.41156533687E+01 0.41372322447E+01 0.41553973603E+01
 0.42869751542E+01 0.43953969721E+01 0.44714671375E+01 0.45160161661E+01 0.45355158238E+01
 0.45355093852E+01 0.45159883913E+01 0.44714178341E+01 0.43953610119E+01 0.42869963134E+01
 0.41554393525E+01 0.40187625728E+01 0.38979900857E+01 0.38100574485E+01 0.37644214357E+01
 0.37644346167E+01 0.38100722839E+01 0.38979628945E+01 0.40186864027E+01 0.41553628758E+01
 0.46351097292E+01 0.48265094067E+01 0.49550632710E+01 0.50213493484E+01 0.50404103309E+01
 0.50213264556E+01 0.49550482431E+01 0.48265267107E+01 0.46351473815E+01 0.43953610119E+01
 0.41372539514E+01 0.38979900857E+01 0.37095426738E+01 0.35914071021E+01 0.35514760453E+01
 0.35914077334E+01 0.37095533237E+01 0.38980081236E+01 0.41372597475E+01 0.43953381468E+01
 0.51251058239E+01 0.53128094779E+01 0.53902988658E+01 0.54063126964E+01 0.54063198294E+01
 0.53903432621E+01 0.53129071988E+01 0.51252002914E+01 0.48265267107E+01 0.44714178341E+01
 0.41156462593E+01 0.38100574485E+01 0.35914071021E+01 0.34787872143E+01 0.34787752636E+01
 0.35913943873E+01 0.38100873391E+01 0.41157254546E+01 0.44714845717E+01 0.48265108977E+01
 0.54874583860E+01 0.54815537710E+01 0.53948430176E+01 0.53481892067E+01 0.53948663703E+01
 0.54815887976E+01 0.54874961691E+01 0.53129071988E+01 0.49550482431E+01 0.45159883913E+01
 0.40988777570E+01 0.37644214357E+01 0.35514760453E+01 0.34787752636E+01 0.35514539697E+01
 0.37644121167E+01 0.40988956149E+01 0.45160061586E+01 0.49550408103E+01 0.53128757725E+01
 0.52807501401E+01 0.49380363551E+01 0.46827696522E+01 0.46827277269E+01 0.49379510634E+01
 0.52807038295E+01 0.54815887976E+01 0.53903432621E+01 0.50213264556E+01 0.45355093852E+01
 0.40926506640E+01 0.37644346167E+01 0.35914077334E+01 0.35913943873E+01 0.37644121167E+01
 0.40926365353E+01 0.45354842548E+01 0.50212613556E+01 0.53902596743E+01 0.54815530985E+01
 0.42054255860E+01 0.35383620818E+01 0.32701077543E+01 0.35384546225E+01 0.42055412599E+01
 0.49379510634E+01 0.53948663703E+01 0.54063198294E+01 0.50404103309E+01 0.45355158238E+01
 0.40988959902E+01 0.38100722839E+01 0.37095533237E+01 0.38100873391E+01 0.40988956149E+01
 0.45354842548E+01 0.50403690326E+01 0.54062924185E+01 0.53948362515E+01 0.49378774401E+01
 0.23219016948E+01 0.15404486131E+01 0.15406890644E+01 0.23223668697E+01 0.35384546225E+01
 0.46827277269E+01 0.53481892067E+01 0.54063126964E+01 0.50213493484E+01 0.45160161661E+01
 0.41156533687E+01 0.38979628945E+01 0.38980081236E+01 0.41157254546E+01 0.45160061586E+01
 0.50212613556E+01 0.54062924185E+01 0.53483057322E+01 0.46827867782E+01 0.35382032753E+01
 0.11460875063E+00 -.43749409551E+00 0.11474407434E+00 0.15406890644E+01 0.32701077543E+01
 0.46827696522E+01 0.53948430176E+01 0.53902988658E+01 0.49550632710E+01 0.44714671375E+01
 0.41372322447E+01 0.40186864027E+01 0.41372597475E+01 0.44714845717E+01 0.49550408103E+01
 0.53902596743E+01 0.53948362515E+01 0.46827867782E+01 0.32700668034E+01 0.15405522677E+01
 -.16693846225E+01 -.16695723314E+01 -.43749409551E+00 0.15404486131E+01 0.35383620818E+01
 0.49380363551E+01 0.54815537710E+01 0.53128094779E+01 0.48265094067E+01 0.43953969721E+01
 0.41553973603E+01 0.41553628758E+01 0.43953381468E+01 0.48265108977E+01 0.53128757725E+01
 0.54815530985E+01 0.49378774401E+01 0.35382032753E+01 0.15405522677E+01 -.43716170531E+00
 -.16695642697E+01 -.43706745314E+00 0.15408245059E+01 0.35384128143E+01 0.49378975505E+01
 0.54815068287E+01 0.53129260731E+01 0.48266152850E+01 0.43953539964E+01 0.41553051806E+01
 0.41554018763E+01 0.43954727727E+01 0.48265278491E+01 0.53127381450E+01 0.54815150862E+01
 0.49380954498E+01 0.35384035877E+01 0.15403203451E+01 -.43780246353E+00 -.16699155763E+01
 -.43706745314E+00 0.11051201024E+01 0.29883544181E+01 0.45510856404E+01 0.53775555816E+01
 0.54383231639E+01 0.50243473343E+01 0.45377816325E+01 0.41986914257E+01 0.40780650101E+01
 0.41986613401E+01 0.45377007311E+01 0.50242590769E+01 0.54383537970E+01 0.53777449719E+01
 0.45511905709E+01 0.29880064006E+01 0.11043092417E+01 -.43778397529E+00 -.10329007703E+01
 0.15408245059E+01 0.29883544181E+01 0.43889758449E+01 0.52710805688E+01 0.54681892903E+01
 0.51404877530E+01 0.46355653995E+01 0.42246292195E+01 0.39995077158E+01 0.39994647527E+01
 0.42245277861E+01 0.46354848569E+01 0.51405131280E+01 0.54683102149E+01 0.52711533842E+01
 0.43888381947E+01 0.29880001072E+01 0.15404439720E+01 0.62120012336E+00 0.62136333465E+00
 0.35384128143E+01 0.45510856404E+01 0.52710805688E+01 0.54680171900E+01 0.51888713947E+01
 0.46902117246E+01 0.42369412270E+01 0.39333785752E+01 0.38271666435E+01 0.39334562371E+01
 0.42369590793E+01 0.46901338127E+01 0.51888141412E+01 0.54680391485E+01 0.52711059066E+01
 0.45510601119E+01 0.35383819146E+01 0.26554835274E+01 0.23060014307E+01 0.26554860975E+01
 0.49378975505E+01 0.53775555816E+01 0.54681892903E+01 0.51888713947E+01 0.47075089098E+01
 0.42413903967E+01 0.38902911067E+01 0.37035305684E+01 0.37035896524E+01 0.38903828040E+01
 0.42413821578E+01 0.47074086509E+01 0.51888164004E+01 0.54682552362E+01 0.53776631580E+01
 0.49379270098E+01 0.43682481966E+01 0.39745142206E+01 0.39745531327E+01 0.43683036922E+01
 0.54815068287E+01 0.54383231639E+01 0.51404877530E+01 0.46902117246E+01 0.42413903967E+01
 0.38755271912E+01 0.36400354743E+01 0.35591852760E+01 0.36400205965E+01 0.38755093551E+01
 0.42413779524E+01 0.46902090440E+01 0.51405047693E+01 0.54383510168E+01 0.54815053285E+01
 0.53115970265E+01 0.50889905194E+01 0.49896629104E+01 0.50890492458E+01 0.53116489542E+01
 0.53129260731E+01 0.50243473343E+01 0.46355653995E+01 0.42369412270E+01 0.38902911067E+01
 0.36400354743E+01 0.35103598452E+01 0.35103454982E+01 0.36400181513E+01 0.38903013173E+01
 0.42369527750E+01 0.46355108886E+01 0.50242218905E+01 0.53128357140E+01 0.54409580623E+01
 0.54409447835E+01 0.54034758381E+01 0.54033973085E+01 0.54408007996E+01 0.54409103955E+01
 0.48266152850E+01 0.45377816325E+01 0.42246292195E+01 0.39333785752E+01 0.37035305684E+01
 0.35591852760E+01 0.35103454982E+01 0.35592251441E+01 0.37035884378E+01 0.39333894961E+01
 0.42245269138E+01 0.45375961365E+01 0.48264807944E+01 0.50506603609E+01 0.51820719480E+01
 0.52349734869E+01 0.52463377907E+01 0.52348060070E+01 0.51818875023E+01 0.50506226346E+01
 0.43953539964E+01 0.41986914257E+01 0.39995077158E+01 0.38271666435E+01 0.37035896524E+01
 0.36400205965E+01 0.36400181513E+01 0.37035884378E+01 0.38271709306E+01 0.39995038729E+01
 0.41986644555E+01 0.43953158398E+01 0.45618607517E+01 0.46819441868E+01 0.47539147776E+01
 0.47855630597E+01 0.47855544126E+01 0.47538985685E+01 0.46819406809E+01 0.45618828935E+01
 0.41553051806E+01 0.40780650101E+01 0.39994647527E+01 0.39334562371E+01 0.38903828040E+01
 0.38755093551E+01 0.38903013173E+01 0.39333894961E+01 0.39995038729E+01 0.40781940983E+01
 0.41554100699E+01 0.42183415491E+01 0.42603947251E+01 0.42827444217E+01 0.42916673249E+01
 0.42937397593E+01 0.42916992047E+01 0.42828225006E+01 0.42604802684E+01 0.42183470932E+01
 0.41554018763E+01 0.41986613401E+01 0.42245277861E+01 0.42369590793E+01 0.42413821578E+01
 0.42413779524E+01 0.42369527750E+01 0.42245269138E+01 0.41986644555E+01 0.41554100699E+01
 0.40959093929E+01 0.40278448511E+01 0.39631801529E+01 0.39136168826E+01 0.38870780388E+01
 0.38870769125E+01 0.39136051963E+01 0.39631513738E+01 0.40278113701E+01 0.40958878260E+01
 0.43954727727E+01 0.45377007311E+01 0.46354848569E+01 0.46901338127E+01 0.47074086509E+01
 0.46902090440E+01 0.46355108886E+01 0.45375961365E+01 0.43953158398E+01 0.42183415491E+01
 0.40278448511E+01 0.38506821151E+01 0.37106885024E+01 0.36227811586E+01 0.35930716559E+01
 0.36227915243E+01 0.37106324554E+01 0.38505484755E+01 0.40277495760E+01 0.42183955029E+01
 0.48265278491E+01 0.50242590769E+01 0.51405131280E+01 0.51888141412E+01 0.51888164004E+01
 0.51405047693E+01 0.50242218905E+01 0.48264807944E+01 0.45618607517E+01 0.42603947251E+01
 0.39631801529E+01 0.37106885024E+01 0.35315647663E+01 0.34398779324E+01 0.34398846174E+01
 0.35315745444E+01 0.37106815053E+01 0.39631559602E+01 0.42603796855E+01 0.45618803008E+01
 0.53127381450E+01 0.54383537970E+01 0.54683102149E+01 0.54680391485E+01 0.54682552362E+01
 0.54383510168E+01 0.53128357140E+01 0.50506603609E+01 0.46819441868E+01 0.42827444217E+01
 0.39136168826E+01 0.36227811586E+01 0.34398779324E+01 0.33778440089E+01 0.34398402020E+01
 0.36227774536E+01 0.39136900573E+01 0.42828305165E+01 0.46819388225E+01 0.50505543920E+01
 0.54815150862E+01 0.53777449719E+01 0.52711533842E+01 0.52711059066E+01 0.53776631580E+01
 0.54815053285E+01 0.54409580623E+01 0.51820719480E+01 0.47539147776E+01 0.42916673249E+01
 0.38870780388E+01 0.35930716559E+01 0.34398846174E+01 0.34398402020E+01 0.35929999260E+01
 0.38870722929E+01 0.42917139278E+01 0.47539167101E+01 0.51819905805E+01 0.54408752180E+01
 0.49380954498E+01 0.45511905709E+01 0.43888381947E+01 0.45510601119E+01 0.49379270098E+01
 0.53115970265E+01 0.54409447835E+01 0.52349734869E+01 0.47855630597E+01 0.42937397593E+01
 0.38870769125E+01 0.36227915243E+01 0.35315745444E+01 0.36227774536E+01 0.38870722929E+01
 0.42937211167E+01 0.47854776051E+01 0.52348427709E+01 0.54408816733E+01 0.53116761186E+01
 0.35384035877E+01 0.29880064006E+01 0.29880001072E+01 0.35383819146E+01 0.43682481966E+01
 0.50889905194E+01 0.54034758381E+01 0.52463377907E+01 0.47855544126E+01 0.42916992047E+01
 0.39136051963E+01 0.37106324554E+01 0.37106815053E+01 0.39136900573E+01 0.42917139278E+01
 0.47854776051E+01 0.52462442472E+01 0.54034377208E+01 0.50890089467E+01 0.43682822967E+01
 0.15403203451E+01 0.11043092417E+01 0.15404439720E+01 0.26554835274E+01 0.39745142206E+01
 0.49896629104E+01 0.54033973085E+01 0.52348060070E+01 0.47538985685E+01 0.42828225006E+01
 0.39631513738E+01 0.38505484755E+01 0.39631559602E+01 0.42828305165E+01 0.47539167101E+01
 0.52348427709E+01 0.54034377208E+01 0.49896573937E+01 0.39744216692E+01 0.26553274120E+01
 -.43780246353E+00 -.43778397529E+00 0.62120012336E+00 0.23060014307E+01 0.39745531327E+01
 0.50890492458E+01 0.54408007996E+01 0.51818875023E+01 0.46819406809E+01 0.42604802684E+01
 0.40278113701E+01 0.40277495760E+01 0.42603796855E+01 0.46819388225E+01 0.51819905805E+01
 0.54408816733E+01 0.50890089467E+01 0.39744216692E+01 0.23058742986E+01 0.62113094151E+00
 -.16699155763E+01 -.10329007703E+01 0.62136333465E+00 0.26554860975E+01 0.43683036922E+01
 0.53116489542E+01 0.54409103955E+01 0.50506226346E+01 0.45618828935E+01 0.42183470932E+01
 0.40958878260E+01 0.42183955029E+01 0.45618803008E+01 0.50505543920E+01 0.54408752180E+01
 0.53116761186E+01 0.43682822967E+01 0.26553274120E+01 0.62113094151E+00 -.10330640638E+01
 0.11433302794E+00 0.15404486856E+01 0.32701603527E+01 0.46829279874E+01 0.53948840561E+01
 0.53902463388E+01 0.49550732520E+01 0.44715575643E+01 0.41372871141E+01 0.40186654275E+01
 0.41372414172E+01 0.44715199616E+01 0.49550906376E+01 0.53902784743E+01 0.53948370486E+01
 0.46828165900E+01 0.32701555589E+01 0.15406488045E+01 0.11456383791E+00 -.43778593756E+00
 0.15404486856E+01 0.29881916728E+01 0.43890739765E+01 0.52712331909E+01 0.54682145014E+01
 0.51404416106E+01 0.46355887961E+01 0.42247103812E+01 0.39995367702E+01 0.39994360139E+01
 0.42245323020E+01 0.46355426640E+01 0.51405505007E+01 0.54682938507E+01 0.52711416034E+01
 0.43888921359E+01 0.29881016419E+01 0.15404911482E+01 0.62106586186E+00 0.62102197174E+00
 0.32701603527E+01 0.43890739765E+01 0.52097450290E+01 0.54792384878E+01 0.52363296230E+01
 0.47433122726E+01 0.42849929062E+01 0.39766159568E+01 0.38684081024E+01 0.39765569905E+01
 0.42849407437E+01 0.47433113466E+01 0.52363458170E+01 0.54792049775E+01 0.52096532735E+01
 0.43889801140E+01 0.32701168939E+01 0.23057379316E+01 0.19256464625E+01 0.23057400371E+01
 0.46829279874E+01 0.52712331909E+01 0.54792384878E+01 0.52642239435E+01 0.47956006915E+01
 0.43192754996E+01 0.39571506540E+01 0.37635176369E+01 0.37635609139E+01 0.39572197928E+01
 0.43192825573E+01 0.47955464838E+01 0.52641520582E+01 0.54791596926E+01 0.52711732479E+01
 0.46829498865E+01 0.39744710432E+01 0.34965244580E+01 0.34964659837E+01 0.39743730404E+01
 0.53948840561E+01 0.54682145014E+01 0.52363296230E+01 0.47956006915E+01 0.43303109823E+01
 0.39464300511E+01 0.36974171804E+01 0.36115929980E+01 0.36974261680E+01 0.39464222674E+01
 0.43302844208E+01 0.47955831201E+01 0.52363334070E+01 0.54682139066E+01 0.53948592761E+01
 0.50890087683E+01 0.47569804117E+01 0.46157018159E+01 0.47570047523E+01 0.50890453519E+01
 0.53902463388E+01 0.51404416106E+01 0.47433122726E+01 0.43192754996E+01 0.39464300511E+01
 0.36751258559E+01 0.35337904964E+01 0.35337470854E+01 0.36750379499E+01 0.39463723513E+01
 0.43192841048E+01 0.47433752989E+01 0.51405172132E+01 0.53902573507E+01 0.54408026144E+01
 0.53553166213E+01 0.52623479144E+01 0.52624386332E+01 0.53554992697E+01 0.54409179183E+01
 0.49550732520E+01 0.46355887961E+01 0.42849929062E+01 0.39571506540E+01 0.36974171804E+01
 0.35337904964E+01 0.34783117722E+01 0.35338006741E+01 0.36974189012E+01 0.39571276935E+01
 0.42849504713E+01 0.46355455731E+01 0.49550409457E+01 0.51819584155E+01 0.52879315313E+01
 0.53097186408E+01 0.53075335713E+01 0.53097291454E+01 0.52879470576E+01 0.51819787996E+01
 0.44715575643E+01 0.42247103812E+01 0.39766159568E+01 0.37635176369E+01 0.36115929980E+01
 0.35337470854E+01 0.35338006741E+01 0.36116981060E+01 0.37635615497E+01 0.39765358719E+01
 0.42245510338E+01 0.44714295391E+01 0.46818936179E+01 0.48337499249E+01 0.49200960476E+01
 0.49541332054E+01 0.49540878279E+01 0.49199927415E+01 0.48336706599E+01 0.46819134376E+01
 0.41372871141E+01 0.39995367702E+01 0.38684081024E+01 0.37635609139E+01 0.36974261680E+01
 0.36750379499E+01 0.36974189012E+01 0.37635615497E+01 0.38684164389E+01 0.39995318660E+01
 0.41372578793E+01 0.42603472466E+01 0.43537300825E+01 0.44131220575E+01 0.44434450285E+01
 0.44523786077E+01 0.44434520252E+01 0.44131370986E+01 0.43537572430E+01 0.42603849230E+01
 0.40186654275E+01 0.39994360139E+01 0.39765569905E+01 0.39572197928E+01 0.39464222674E+01
 0.39463723513E+01 0.39571276935E+01 0.39765358719E+01 0.39995318660E+01 0.40187979648E+01
 0.40278185220E+01 0.40244868829E+01 0.40122955133E+01 0.39982214300E+01 0.39891579461E+01
 0.39891733193E+01 0.39982845209E+01 0.40124026902E+01 0.40245592679E+01 0.40277736980E+01
 0.41372414172E+01 0.42245323020E+01 0.42849407437E+01 0.43192825573E+01 0.43302844208E+01
 0.43192841048E+01 0.42849504713E+01 0.42245510338E+01 0.41372578793E+01 0.40278185220E+01
 0.39080674993E+01 0.37945419866E+01 0.37032455667E+01 0.36451502730E+01 0.36253626288E+01
 0.36451442079E+01 0.37032438901E+01 0.37945508806E+01 0.39080772370E+01 0.40278158861E+01
 0.44715199616E+01 0.46355426640E+01 0.47433113466E+01 0.47955464838E+01 0.47955831201E+01
 0.47433752989E+01 0.46355455731E+01 0.44714295391E+01 0.42603472466E+01 0.40244868829E+01
 0.37945419866E+01 0.36004974803E+01 0.34634712703E+01 0.33935597138E+01 0.33935558181E+01
 0.34634397939E+01 0.36004289545E+01 0.37944937335E+01 0.40245296019E+01 0.42604632892E+01
 0.49550906376E+01 0.51405505007E+01 0.52363458170E+01 0.52641520582E+01 0.52363334070E+01
 0.51405172132E+01 0.49550409457E+01 0.46818936179E+01 0.43537300825E+01 0.40122955133E+01
 0.37032455667E+01 0.34634712703E+01 0.33143518557E+01 0.32641003289E+01 0.33143430388E+01
 0.34634668700E+01 0.37032520538E+01 0.40123116186E+01 0.43537572430E+01 0.46819376002E+01
 0.53902784743E+01 0.54682938507E+01 0.54792049775E+01 0.54791596926E+01 0.54682139066E+01
 0.53902573507E+01 0.51819584155E+01 0.48337499249E+01 0.44131220575E+01 0.39982214300E+01
 0.36451502730E+01 0.33935597138E+01 0.32641003289E+01 0.32640824128E+01 0.33935386870E+01
 0.36451785671E+01 0.39982885674E+01 0.44131584576E+01 0.48337199108E+01 0.51819141986E+01
 0.53948370486E+01 0.52711416034E+01 0.52096532735E+01 0.52711732479E+01 0.53948592761E+01
 0.54408026144E+01 0.52879315313E+01 0.49200960476E+01 0.44434450285E+01 0.39891579461E+01
 0.36253626288E+01 0.33935558181E+01 0.33143430388E+01 0.33935386870E+01 0.36253332357E+01
 0.39891342693E+01 0.44434531958E+01 0.49201422240E+01 0.52879854683E+01 0.54408241962E+01
 0.46828165900E+01 0.43888921359E+01 0.43889801140E+01 0.46829498865E+01 0.50890087683E+01
 0.53553166213E+01 0.53097186408E+01 0.49541332054E+01 0.44523786077E+01 0.39891733193E+01
 0.36451442079E+01 0.34634397939E+01 0.34634668700E+01 0.36451785671E+01 0.39891342693E+01
 0.44522780156E+01 0.49540977479E+01 0.53098365483E+01 0.53554831295E+01 0.50890308518E+01
 0.32701555589E+01 0.29881016419E+01 0.32701168939E+01 0.39744710432E+01 0.47569804117E+01
 0.52623479144E+01 0.53075335713E+01 0.49540878279E+01 0.44434520252E+01 0.39982845209E+01
 0.37032438901E+01 0.36004289545E+01 0.37032520538E+01 0.39982885674E+01 0.44434531958E+01
 0.49540977479E+01 0.53075518780E+01 0.52623656726E+01 0.47570047523E+01 0.39745132144E+01
 0.15406488045E+01 0.15404911482E+01 0.23057379316E+01 0.34965244580E+01 0.46157018159E+01
 0.52624386332E+01 0.53097291454E+01 0.49199927415E+01 0.44131370986E+01 0.40124026902E+01
 0.37945508806E+01 0.37944937335E+01 0.40123116186E+01 0.44131584576E+01 0.49201422240E+01
 0.53098365483E+01 0.52623656726E+01 0.46155772982E+01 0.34966033197E+01 0.23060128030E+01
 0.11456383791E+00 0.62106586186E+00 0.19256464625E+01 0.34964659837E+01 0.47570047523E+01
 0.53554992697E+01 0.52879470576E+01 0.48336706599E+01 0.43537572430E+01 0.40245592679E+01
 0.39080772370E+01 0.40245296019E+01 0.43537572430E+01 0.48337199108E+01 0.52879854683E+01
 0.53554831295E+01 0.47570047523E+01 0.34966033197E+01 0.19259202482E+01 0.62129825500E+00
 -.43778593756E+00 0.62102197174E+00 0.23057400371E+01 0.39743730404E+01 0.50890453519E+01
 0.54409179183E+01 0.51819787996E+01 0.46819134376E+01 0.42603849230E+01 0.40277736980E+01
 0.40278158861E+01 0.42604632892E+01 0.46819376002E+01 0.51819141986E+01 0.54408241962E+01
 0.50890308518E+01 0.39745132144E+01 0.23060128030E+01 0.62129825500E+00 -.43766888274E+00
 0.23219867254E+01 0.35381481366E+01 0.46826467837E+01 0.53482166924E+01 0.54063035722E+01
 0.50212976481E+01 0.45159967009E+01 0.41156932591E+01 0.38980057728E+01 0.38979846573E+01
 0.41156580211E+01 0.45159986606E+01 0.50213435052E+01 0.54063364270E+01 0.53482179059E+01
 0.46827235134E+01 0.35384165503E+01 0.23223514675E+01 0.15407599470E+01 0.15405850228E+01
 0.35381481366E+01 0.45508680023E+01 0.52710165493E+01 0.54680453882E+01 0.51888803514E+01
 0.46901864297E+01 0.42369352766E+01 0.39334034857E+01 0.38271848439E+01 0.39334535881E+01
 0.42369592157E+01 0.46901515025E+01 0.51888384268E+01 0.54680568615E+01 0.52711194827E+01
 0.45510923855E+01 0.35384614928E+01 0.26555900182E+01 0.23060324682E+01 0.26553455268E+01
 0.46826467837E+01 0.52710165493E+01 0.54792043757E+01 0.52642708493E+01 0.47955946385E+01
 0.43192245514E+01 0.39571332077E+01 0.37635413897E+01 0.37635764694E+01 0.39572122033E+01
 0.43192779050E+01 0.47955607787E+01 0.52641768317E+01 0.54791761477E+01 0.52711714527E+01
 0.46829637295E+01 0.39745691442E+01 0.34967005216E+01 0.34965692077E+01 0.39742532956E+01
 0.53482166924E+01 0.54680453882E+01 0.52642708493E+01 0.48304882383E+01 0.43603023163E+01
 0.39707048699E+01 0.37173830773E+01 0.36299595966E+01 0.37173856585E+01 0.39707658258E+01
 0.43604064913E+01 0.48305143546E+01 0.52641539142E+01 0.54679228880E+01 0.53483183771E+01
 0.49898598364E+01 0.46158537725E+01 0.44583930602E+01 0.46155244852E+01 0.49895067397E+01
 0.54063035722E+01 0.51888803514E+01 0.47955946385E+01 0.43603023163E+01 0.39751241436E+01
 0.36936847674E+01 0.35466896742E+01 0.35466560749E+01 0.36936449879E+01 0.39751701847E+01
 0.43604109248E+01 0.47956357245E+01 0.51887965046E+01 0.54062113357E+01 0.54034614635E+01
 0.52624695960E+01 0.51340772521E+01 0.51339799321E+01 0.52622944901E+01 0.54034073686E+01
 0.50212976481E+01 0.46901864297E+01 0.43192245514E+01 0.39707048699E+01 0.36936847674E+01
 0.35186911131E+01 0.34592248811E+01 0.35186364439E+01 0.36936436696E+01 0.39707228751E+01
 0.43192851059E+01 0.46902494510E+01 0.50213306282E+01 0.52348295822E+01 0.53096760183E+01
 0.53006941880E+01 0.52858456056E+01 0.53007855386E+01 0.53097718177E+01 0.52348590005E+01
 0.45159967009E+01 0.42369352766E+01 0.39571332077E+01 0.37173830773E+01 0.35466896742E+01
 0.34592248811E+01 0.34592240857E+01 0.35466857062E+01 0.37173774635E+01 0.39571370072E+01
 0.42369658435E+01 0.45160465230E+01 0.47539070798E+01 0.49200726185E+01 0.50049814775E+01
 0.50336296477E+01 0.50336779289E+01 0.50050760191E+01 0.49201247778E+01 0.47538874829E+01
 0.41156932591E+01 0.39334034857E+01 0.37635413897E+01 0.36299595966E+01 0.35466560749E+01
 0.35186364439E+01 0.35466857062E+01 0.36299935342E+01 0.37635578521E+01 0.39333995607E+01
 0.41156758154E+01 0.42827550808E+01 0.44131650971E+01 0.44986930154E+01 0.45436811085E+01
 0.45571141190E+01 0.45436604493E+01 0.44986763459E+01 0.44131692761E+01 0.42827735931E+01
 0.38980057728E+01 0.38271848439E+01 0.37635764694E+01 0.37173856585E+01 0.36936449879E+01
 0.36936436696E+01 0.37173774635E+01 0.37635578521E+01 0.38271702339E+01 0.38980218467E+01
 0.39631859336E+01 0.40123418180E+01 0.40420406030E+01 0.40557888344E+01 0.40602349960E+01
 0.40602609027E+01 0.40558320265E+01 0.40420429326E+01 0.40122950391E+01 0.39631351671E+01
 0.38979846573E+01 0.39334535881E+01 0.39572122033E+01 0.39707658258E+01 0.39751701847E+01
 0.39707228751E+01 0.39571370072E+01 0.39333995607E+01 0.38980218467E+01 0.38506919456E+01
 0.37945777605E+01 0.37370358628E+01 0.36875726561E+01 0.36545456806E+01 0.36430474518E+01
 0.36546486681E+01 0.36876728313E+01 0.37370256603E+01 0.37944563727E+01 0.38505633046E+01
 0.41156580211E+01 0.42369592157E+01 0.43192779050E+01 0.43604064913E+01 0.43604109248E+01
 0.43192851059E+01 0.42369658435E+01 0.41156758154E+01 0.39631859336E+01 0.37945777605E+01
 0.36303838991E+01 0.34912881184E+01 0.33925584176E+01 0.33419873698E+01 0.33419996096E+01
 0.33925878743E+01 0.34913136207E+01 0.36303814146E+01 0.37945462283E+01 0.39631512375E+01
 0.45159986606E+01 0.46901515025E+01 0.47955607787E+01 0.48305143546E+01 0.47956357245E+01
 0.46902494510E+01 0.45160465230E+01 0.42827550808E+01 0.40123418180E+01 0.37370358628E+01
 0.34912881184E+01 0.33023955199E+01 0.31856752726E+01 0.31464787872E+01 0.31856506239E+01
 0.33023622511E+01 0.34912844524E+01 0.37370901092E+01 0.40124248310E+01 0.42827926309E+01
 0.50213435052E+01 0.51888384268E+01 0.52641768317E+01 0.52641539142E+01 0.51887965046E+01
 0.50213306282E+01 0.47539070798E+01 0.44131650971E+01 0.40420406030E+01 0.36875726561E+01
 0.33925584176E+01 0.31856752726E+01 0.30803180822E+01 0.30803112399E+01 0.31856752939E+01
 0.33925887795E+01 0.36876132599E+01 0.40420464252E+01 0.44131297371E+01 0.47538768757E+01
 0.54063364270E+01 0.54680568615E+01 0.54791761477E+01 0.54679228880E+01 0.54062113357E+01
 0.52348295822E+01 0.49200726185E+01 0.44986930154E+01 0.40557888344E+01 0.36545456806E+01
 0.33419873698E+01 0.31464787872E+01 0.30803112399E+01 0.31464852153E+01 0.33420348467E+01
 0.36546195559E+01 0.40558048349E+01 0.44986052054E+01 0.49199586451E+01 0.52348203069E+01
 0.53482179059E+01 0.52711194827E+01 0.52711714527E+01 0.53483183771E+01 0.54034614635E+01
 0.53096760183E+01 0.50049814775E+01 0.45436811085E+01 0.40602349960E+01 0.36430474518E+01
 0.33419996096E+01 0.31856506239E+01 0.31856752939E+01 0.33420348467E+01 0.36430416089E+01
 0.40602109540E+01 0.45437069830E+01 0.50050603681E+01 0.53097273502E+01 0.54034189099E+01
 0.46827235134E+01 0.45510923855E+01 0.46829637295E+01 0.49898598364E+01 0.52624695960E+01
 0.53006941880E+01 0.50336296477E+01 0.45571141190E+01 0.40602609027E+01 0.36546486681E+01
 0.33925878743E+01 0.33023622511E+01 0.33925887795E+01 0.36546195559E+01 0.40602109540E+01
 0.45571272146E+01 0.50337674207E+01 0.53008659717E+01 0.52624763110E+01 0.49896397021E+01
 0.35384165503E+01 0.35384614928E+01 0.39745691442E+01 0.46158537725E+01 0.51340772521E+01
 0.52858456056E+01 0.50336779289E+01 0.45436604493E+01 0.40558320265E+01 0.36876728313E+01
 0.34913136207E+01 0.34912844524E+01 0.36876132599E+01 0.40558048349E+01 0.45437069830E+01
 0.50337674207E+01 0.52858945024E+01 0.51340291580E+01 0.46157347874E+01 0.39744560380E+01
 0.23223514675E+01 0.26555900182E+01 0.34967005216E+01 0.44583930602E+01 0.51339799321E+01
 0.53007855386E+01 0.50050760191E+01 0.44986763459E+01 0.40420429326E+01 0.37370256603E+01
 0.36303814146E+01 0.37370901092E+01 0.40420464252E+01 0.44986052054E+01 0.50050603681E+01
 0.53008659717E+01 0.51340291580E+01 0.44583169670E+01 0.34965631856E+01 0.26554994924E+01
 0.15407599470E+01 0.23060324682E+01 0.34965692077E+01 0.46155244852E+01 0.52622944901E+01
 0.53097718177E+01 0.49201247778E+01 0.44131692761E+01 0.40122950391E+01 0.37944563727E+01
 0.37945462283E+01 0.40124248310E+01 0.44131297371E+01 0.49199586451E+01 0.53097273502E+01
 0.52624763110E+01 0.46157347874E+01 0.34965631856E+01 0.23058411555E+01 0.15406453275E+01
 0.15405850228E+01 0.26553455268E+01 0.39742532956E+01 0.49895067397E+01 0.54034073686E+01
 0.52348590005E+01 0.47538874829E+01 0.42827735931E+01 0.39631351671E+01 0.38505633046E+01
 0.39631512375E+01 0.42827926309E+01 0.47538768757E+01 0.52348203069E+01 0.54034189099E+01
 0.49896397021E+01 0.39744560380E+01 0.26554994924E+01 0.15406453275E+01 0.11046493356E+01
 0.42057491132E+01 0.49380771976E+01 0.53948362515E+01 0.54062185416E+01 0.50403495957E+01
 0.45355088123E+01 0.40988956149E+01 0.38100557259E+01 0.37095295038E+01 0.38100699049E+01
 0.40988959902E+01 0.45355019641E+01 0.50403857813E+01 0.54063031111E+01 0.53948663703E+01
 0.49379313750E+01 0.42054497690E+01 0.35383315198E+01 0.32701077543E+01 0.35385832349E+01
 0.49380771976E+01 0.53776095613E+01 0.54681012499E+01 0.51887690112E+01 0.47074887994E+01
 0.42414129657E+01 0.38902801642E+01 0.37034920069E+01 0.37035738028E+01 0.38903911627E+01