       N       E                     dE             d eps       ncg     rms          rms(c)
DAV:   1    -0.420862305339E+01   -0.42086E+01   -0.12875E+03   774   0.286E+02
DAV:   2    -0.549669604053E+01   -0.12881E+01   -0.12705E+01   936   0.254E+01
DAV:   3    -0.550488832271E+01   -0.81923E-02   -0.81303E-02   786   0.190E+00
DAV:   4    -0.550489401522E+01   -0.56925E-05   -0.56913E-05   978   0.449E-02
DAV:   5    -0.550489401872E+01   -0.34910E-08   -0.37120E-08   732   0.814E-04    0.837E-01
DAV:   6    -0.548707108499E+01    0.17823E-01   -0.48665E-03   738   0.405E-01    0.495E-01
DAV:   7    -0.547721736996E+01    0.98537E-02   -0.98418E-03   708   0.576E-01    0.267E-02
DAV:   8    -0.547718525856E+01    0.32111E-04   -0.28233E-05   684   0.487E-02
   1 F= -.54771853E+01 E0= -.54753699E+01  d E =-.363071E-02
