fcc Si                                  
   3.80000000000000     
     0.445088    0.445088    0.000000
     0.000000    0.445088    0.445088
     0.445088    0.000000    0.445088
   Si
     1
Direct
  0.000000  0.000000  0.000000
 
   20   20   20
 -.18634310922E+01 -.14341978983E+01 -.27315982147E+00 0.12857851135E+01 0.28242947625E+01
 0.39924276533E+01 0.46258719906E+01 0.47767331483E+01 0.46531367113E+01 0.44992109105E+01
 0.44386738322E+01 0.44992109105E+01 0.46531367113E+01 0.47767331483E+01 0.46258719906E+01
 0.39924276533E+01 0.28242947625E+01 0.12857851135E+01 -.27315982147E+00 -.14341978983E+01
 -.14341978983E+01 -.63999443535E+00 0.71351050985E+00 0.22434772308E+01 0.35616352655E+01
 0.44131338235E+01 0.47506619021E+01 0.47158710433E+01 0.45478104680E+01 0.44337898804E+01
 0.44337839971E+01 0.45478119833E+01 0.47158991074E+01 0.47506958783E+01 0.44131502580E+01
 0.35616674279E+01 0.22435876685E+01 0.71370392126E+00 -.63980124203E+00 -.14341167174E+01
 -.27315982147E+00 0.71351050985E+00 0.20232196017E+01 0.32901163731E+01 0.42172495632E+01
 0.46769295866E+01 0.47317110211E+01 0.45760258496E+01 0.44209109632E+01 0.43611654501E+01
 0.44209076171E+01 0.45760443328E+01 0.47317548016E+01 0.46769686618E+01 0.42172806422E+01
 0.32902137901E+01 0.20234695875E+01 0.71387297853E+00 -.27288147117E+00 -.63980124203E+00
 0.12857851135E+01 0.22434772308E+01 0.32901163731E+01 0.41382951344E+01 0.46173248205E+01
 0.47218240840E+01 0.45866989761E+01 0.44048518680E+01 0.42935137936E+01 0.42935044154E+01
 0.44048419158E+01 0.45867161456E+01 0.47218617563E+01 0.46173577288E+01 0.41383503664E+01
 0.32902906352E+01 0.22438191530E+01 0.12861640832E+01 0.71387297853E+00 0.71370392126E+00
 0.28242947625E+01 0.35616352655E+01 0.42172495632E+01 0.46173248205E+01 0.47143045723E+01
 0.45878957311E+01 0.43917516218E+01 0.42419416212E+01 0.41864280952E+01 0.42419035313E+01
 0.43917259611E+01 0.45879103540E+01 0.47143325648E+01 0.46173487687E+01 0.42173254723E+01
 0.35618379144E+01 0.28245939968E+01 0.22438191530E+01 0.20234695875E+01 0.22435876685E+01
 0.39924276533E+01 0.44131338235E+01 0.46769295866E+01 0.47218240840E+01 0.45878957311E+01
 0.43867159747E+01 0.42142268598E+01 0.41158082431E+01 0.41157826865E+01 0.42141794094E+01
 0.43866944807E+01 0.45879075383E+01 0.47218405741E+01 0.46769481851E+01 0.44132019548E+01
 0.39925759100E+01 0.35618379144E+01 0.32902906352E+01 0.32902137901E+01 0.35616674279E+01
 0.46258719906E+01 0.47506619021E+01 0.47317110211E+01 0.45866989761E+01 0.43917516218E+01
 0.42142268598E+01 0.40912252175E+01 0.40473180624E+01 0.40911987375E+01 0.42141978332E+01
 0.43917447411E+01 0.45867143704E+01 0.47317311894E+01 0.47506788751E+01 0.46259022788E+01
 0.44132019548E+01 0.42173254723E+01 0.41383503664E+01 0.42172806422E+01 0.44131502580E+01
 0.47767331483E+01 0.47158710433E+01 0.45760258496E+01 0.44048518680E+01 0.42419416212E+01
 0.41158082431E+01 0.40473180624E+01 0.40473137071E+01 0.41158015637E+01 0.42419452390E+01
 0.44048725661E+01 0.45760548399E+01 0.47158923593E+01 0.47767347435E+01 0.47506788751E+01
 0.46769481851E+01 0.46173487687E+01 0.46173577288E+01 0.46769686618E+01 0.47506958783E+01
 0.46531367113E+01 0.45478104680E+01 0.44209109632E+01 0.42935137936E+01 0.41864280952E+01
 0.41157826865E+01 0.40911987375E+01 0.41158015637E+01 0.41864579611E+01 0.42935460541E+01
 0.44209430788E+01 0.45478383872E+01 0.46531506993E+01 0.47158923593E+01 0.47317311894E+01
 0.47218405741E+01 0.47143325648E+01 0.47218617563E+01 0.47317548016E+01 0.47158991074E+01
 0.44992109105E+01 0.44337898804E+01 0.43611654501E+01 0.42935044154E+01 0.42419035313E+01
 0.42141794094E+01 0.42141978332E+01 0.42419452390E+01 0.42935460541E+01 0.43611980508E+01
 0.44338205545E+01 0.44992442758E+01 0.45478383872E+01 0.45760548399E+01 0.45867143704E+01
 0.45879075383E+01 0.45879103540E+01 0.45867161456E+01 0.45760443328E+01 0.45478119833E+01
 0.44386738322E+01 0.44337839971E+01 0.44209076171E+01 0.44048419158E+01 0.43917259611E+01
 0.43866944807E+01 0.43917447411E+01 0.44048725661E+01 0.44209430788E+01 0.44338205545E+01
 0.44387103998E+01 0.44338205545E+01 0.44209430788E+01 0.44048725661E+01 0.43917447411E+01
 0.43866944807E+01 0.43917259611E+01 0.44048419158E+01 0.44209076171E+01 0.44337839971E+01
 0.44992109105E+01 0.45478119833E+01 0.45760443328E+01 0.45867161456E+01 0.45879103540E+01
 0.45879075383E+01 0.45867143704E+01 0.45760548399E+01 0.45478383872E+01 0.44992442758E+01
 0.44338205545E+01 0.43611980508E+01 0.42935460541E+01 0.42419452390E+01 0.42141978332E+01
 0.42141794094E+01 0.42419035313E+01 0.42935044154E+01 0.43611654501E+01 0.44337898804E+01
 0.46531367113E+01 0.47158991074E+01 0.47317548016E+01 0.47218617563E+01 0.47143325648E+01
 0.47218405741E+01 0.47317311894E+01 0.47158923593E+01 0.46531506993E+01 0.45478383872E+01
 0.44209430788E+01 0.42935460541E+01 0.41864579611E+01 0.41158015637E+01 0.40911987375E+01
 0.41157826865E+01 0.41864280952E+01 0.42935137936E+01 0.44209109632E+01 0.45478104680E+01
 0.47767331483E+01 0.47506958783E+01 0.46769686618E+01 0.46173577288E+01 0.46173487687E+01
 0.46769481851E+01 0.47506788751E+01 0.47767347435E+01 0.47158923593E+01 0.45760548399E+01
 0.44048725661E+01 0.42419452390E+01 0.41158015637E+01 0.40473137071E+01 0.40473180624E+01
 0.41158082431E+01 0.42419416212E+01 0.44048518680E+01 0.45760258496E+01 0.47158710433E+01
 0.46258719906E+01 0.44131502580E+01 0.42172806422E+01 0.41383503664E+01 0.42173254723E+01
 0.44132019548E+01 0.46259022788E+01 0.47506788751E+01 0.47317311894E+01 0.45867143704E+01
 0.43917447411E+01 0.42141978332E+01 0.40911987375E+01 0.40473180624E+01 0.40912252175E+01
 0.42142268598E+01 0.43917516218E+01 0.45866989761E+01 0.47317110211E+01 0.47506619021E+01
 0.39924276533E+01 0.35616674279E+01 0.32902137901E+01 0.32902906352E+01 0.35618379144E+01
 0.39925759100E+01 0.44132019548E+01 0.46769481851E+01 0.47218405741E+01 0.45879075383E+01
 0.43866944807E+01 0.42141794094E+01 0.41157826865E+01 0.41158082431E+01 0.42142268598E+01
 0.43867159747E+01 0.45878957311E+01 0.47218240840E+01 0.46769295866E+01 0.44131338235E+01
 0.28242947625E+01 0.22435876685E+01 0.20234695875E+01 0.22438191530E+01 0.28245939968E+01
 0.35618379144E+01 0.42173254723E+01 0.46173487687E+01 0.47143325648E+01 0.45879103540E+01
 0.43917259611E+01 0.42419035313E+01 0.41864280952E+01 0.42419416212E+01 0.43917516218E+01
 0.45878957311E+01 0.47143045723E+01 0.46173248205E+01 0.42172495632E+01 0.35616352655E+01
 0.12857851135E+01 0.71370392126E+00 0.71387297853E+00 0.12861640832E+01 0.22438191530E+01
 0.32902906352E+01 0.41383503664E+01 0.46173577288E+01 0.47218617563E+01 0.45867161456E+01
 0.44048419158E+01 0.42935044154E+01 0.42935137936E+01 0.44048518680E+01 0.45866989761E+01
 0.47218240840E+01 0.46173248205E+01 0.41382951344E+01 0.32901163731E+01 0.22434772308E+01
 -.27315982147E+00 -.63980124203E+00 -.27288147117E+00 0.71387297853E+00 0.20234695875E+01
 0.32902137901E+01 0.42172806422E+01 0.46769686618E+01 0.47317548016E+01 0.45760443328E+01
 0.44209076171E+01 0.43611654501E+01 0.44209109632E+01 0.45760258496E+01 0.47317110211E+01
 0.46769295866E+01 0.42172495632E+01 0.32901163731E+01 0.20232196017E+01 0.71351050985E+00
 -.14341978983E+01 -.14341167174E+01 -.63980124203E+00 0.71370392126E+00 0.22435876685E+01
 0.35616674279E+01 0.44131502580E+01 0.47506958783E+01 0.47158991074E+01 0.45478119833E+01
 0.44337839971E+01 0.44337898804E+01 0.45478104680E+01 0.47158710433E+01 0.47506619021E+01
 0.44131338235E+01 0.35616352655E+01 0.22434772308E+01 0.71351050985E+00 -.63999443535E+00
 -.14344084842E+01 -.63980064766E+00 0.71391272647E+00 0.22437748129E+01 0.35616996843E+01
 0.44130844349E+01 0.47506555797E+01 0.47159164887E+01 0.45478273007E+01 0.44337677180E+01
 0.44337862531E+01 0.45478510372E+01 0.47159141921E+01 0.47506745145E+01 0.44131781861E+01
 0.35617925569E+01 0.22436842806E+01 0.71356105305E+00 -.64023214562E+00 -.14346043952E+01
 -.63980064766E+00 0.40761713982E+00 0.18026332629E+01 0.31607905485E+01 0.41674362100E+01
 0.46833592312E+01 0.47683978654E+01 0.46220414570E+01 0.44668123797E+01 0.44066571874E+01
 0.44668343787E+01 0.46220543150E+01 0.47684113492E+01 0.46834368110E+01 0.41675839123E+01
 0.31608677384E+01 0.18024588838E+01 0.40721044133E+00 -.64015349927E+00 -.10286832956E+01
 0.71391272647E+00 0.18026332629E+01 0.30063337978E+01 0.40041006770E+01 0.45989382338E+01
 0.47736055478E+01 0.46666219843E+01 0.44872786552E+01 0.43746681380E+01 0.43746843484E+01
 0.44872946994E+01 0.46666081746E+01 0.47736184407E+01 0.45990556231E+01 0.40042714977E+01
 0.30063756997E+01 0.18024331265E+01 0.71359777671E+00 0.67026042771E-01 0.67178922081E-01
 0.22437748129E+01 0.31607905485E+01 0.40041006770E+01 0.45617551120E+01 0.47633426239E+01
 0.46856441490E+01 0.44974830816E+01 0.43455567646E+01 0.42886004427E+01 0.43455752247E+01
 0.44974635699E+01 0.46855954817E+01 0.47633617776E+01 0.45618888952E+01 0.40042475978E+01
 0.31608048183E+01 0.22436413851E+01 0.15332497792E+01 0.12658645747E+01 0.15333903357E+01
 0.35616996843E+01 0.41674362100E+01 0.45989382338E+01 0.47633426239E+01 0.46901088016E+01
 0.45011913808E+01 0.43256214346E+01 0.42233604468E+01 0.42233641490E+01 0.43256114911E+01
 0.45011452919E+01 0.46900614790E+01 0.47633594189E+01 0.45990312150E+01 0.41675362361E+01
 0.35617315122E+01 0.29716335346E+01 0.26079339033E+01 0.26079580336E+01 0.29716645564E+01
 0.44130844349E+01 0.46833592312E+01 0.47736055478E+01 0.46856441490E+01 0.45011913808E+01
 0.43185778720E+01 0.41885541113E+01 0.41415914623E+01 0.41885494507E+01 0.43185573542E+01
 0.45011516886E+01 0.46856081258E+01 0.47736080703E+01 0.46834093170E+01 0.44131504073E+01
 0.40518050996E+01 0.37444929915E+01 0.36241792906E+01 0.37444798303E+01 0.40517624582E+01
 0.47506555797E+01 0.47683978654E+01 0.46666219843E+01 0.44974830816E+01 0.43256214346E+01
 0.41885541113E+01 0.41129434653E+01 0.41129475940E+01 0.41885614521E+01 0.43256249605E+01
 0.44974794013E+01 0.46666131053E+01 0.47683895038E+01 0.47506565420E+01 0.46224023676E+01
 0.44525816477E+01 0.43347145724E+01 0.43347012720E+01 0.44525546008E+01 0.46223841820E+01
 0.47159164887E+01 0.46220414570E+01 0.44872786552E+01 0.43455567646E+01 0.42233604468E+01
 0.41415914623E+01 0.41129475940E+01 0.41416134670E+01 0.42234022704E+01 0.43456071241E+01
 0.44873148418E+01 0.46220405775E+01 0.47158835496E+01 0.47387212787E+01 0.47000213981E+01
 0.46434349822E+01 0.46175869422E+01 0.46434296153E+01 0.47000327767E+01 0.47387557902E+01
 0.45478273007E+01 0.44668123797E+01 0.43746681380E+01 0.42886004427E+01 0.42233641490E+01
 0.41885494507E+01 0.41885614521E+01 0.42234022704E+01 0.42886627104E+01 0.43747360918E+01
 0.44668592046E+01 0.45478352280E+01 0.46035315549E+01 0.46252911556E+01 0.46193394937E+01
 0.46072038780E+01 0.46072149423E+01 0.46193694969E+01 0.46253290719E+01 0.46035576238E+01
 0.44337677180E+01 0.44066571874E+01 0.43746843484E+01 0.43455752247E+01 0.43256114911E+01
 0.43185573542E+01 0.43256249605E+01 0.43456071241E+01 0.43747360918E+01 0.44067179024E+01
 0.44338185039E+01 0.44493630393E+01 0.44508455110E+01 0.44417876131E+01 0.44304705403E+01
 0.44254422936E+01 0.44304904607E+01 0.44418109451E+01 0.44508508685E+01 0.44493380883E+01
 0.44337862531E+01 0.44668343787E+01 0.44872946994E+01 0.44974635699E+01 0.45011452919E+01
 0.45011516886E+01 0.44974794013E+01 0.44873148418E+01 0.44668592046E+01 0.44338185039E+01
 0.43892130480E+01 0.43378432746E+01 0.42874734399E+01 0.42470753305E+01 0.42245549088E+01
 0.42245522981E+01 0.42470650380E+01 0.42874510161E+01 0.43378092325E+01 0.43891756151E+01
 0.45478510372E+01 0.46220543150E+01 0.46666081746E+01 0.46855954817E+01 0.46900614790E+01
 0.46856081258E+01 0.46666131053E+01 0.46220405775E+01 0.45478352280E+01 0.44493630393E+01
 0.43378432746E+01 0.42289907237E+01 0.41386262595E+01 0.40792863460E+01 0.40586511175E+01
 0.40792639728E+01 0.41385873631E+01 0.42289473939E+01 0.43378131281E+01 0.44493581430E+01
 0.47159141921E+01 0.47684113492E+01 0.47736184407E+01 0.47633617776E+01 0.47633594189E+01
 0.47736080703E+01 0.47683895038E+01 0.47158835496E+01 0.46035315549E+01 0.44508455110E+01
 0.42874734399E+01 0.41386262595E+01 0.40264178955E+01 0.39663964529E+01 0.39663822805E+01
 0.40263837755E+01 0.41385929070E+01 0.42874583404E+01 0.44508548244E+01 0.46035593719E+01
 0.47506745145E+01 0.46834368110E+01 0.45990556231E+01 0.45618888952E+01 0.45990312150E+01
 0.46834093170E+01 0.47506565420E+01 0.47387212787E+01 0.46252911556E+01 0.44417876131E+01
 0.42470753305E+01 0.40792863460E+01 0.39663964529E+01 0.39266518963E+01 0.39663770301E+01
 0.40792701729E+01 0.42470833149E+01 0.44418176682E+01 0.46253214803E+01 0.47387395397E+01
 0.44131781861E+01 0.41675839123E+01 0.40042714977E+01 0.40042475978E+01 0.41675362361E+01
 0.44131504073E+01 0.46224023676E+01 0.47000213981E+01 0.46193394937E+01 0.44304705403E+01
 0.42245549088E+01 0.40586511175E+01 0.39663822805E+01 0.39663770301E+01 0.40586526519E+01
 0.42245850747E+01 0.44305156740E+01 0.46193626078E+01 0.47000142617E+01 0.46223978723E+01
 0.35617925569E+01 0.31608677384E+01 0.30063756997E+01 0.31608048183E+01 0.35617315122E+01
 0.40518050996E+01 0.44525816477E+01 0.46434349822E+01 0.46072038780E+01 0.44254422936E+01
 0.42245522981E+01 0.40792639728E+01 0.40263837755E+01 0.40792701729E+01 0.42245850747E+01
 0.44254921513E+01 0.46072222194E+01 0.46433975157E+01 0.44525301421E+01 0.40518046696E+01
 0.22436842806E+01 0.18024588838E+01 0.18024331265E+01 0.22436413851E+01 0.29716335346E+01
 0.37444929915E+01 0.43347145724E+01 0.46175869422E+01 0.46072149423E+01 0.44304904607E+01
 0.42470650380E+01 0.41385873631E+01 0.41385929070E+01 0.42470833149E+01 0.44305156740E+01
 0.46072222194E+01 0.46175493673E+01 0.43346401304E+01 0.37444326116E+01 0.29716323631E+01
 0.71356105305E+00 0.40721044133E+00 0.71359777671E+00 0.15332497792E+01 0.26079339033E+01
 0.36241792906E+01 0.43347012720E+01 0.46434296153E+01 0.46193694969E+01 0.44418109451E+01
 0.42874510161E+01 0.42289473939E+01 0.42874583404E+01 0.44418176682E+01 0.46193626078E+01
 0.46433975157E+01 0.43346401304E+01 0.36240980386E+01 0.26078497795E+01 0.15331822893E+01
 -.64023214562E+00 -.64015349927E+00 0.67026042771E-01 0.12658645747E+01 0.26079580336E+01
 0.37444798303E+01 0.44525546008E+01 0.47000327767E+01 0.46253290719E+01 0.44508508685E+01
 0.43378092325E+01 0.43378131281E+01 0.44508548244E+01 0.46253214803E+01 0.47000142617E+01
 0.44525301421E+01 0.37444326116E+01 0.26078497795E+01 0.12656861157E+01 0.66843568602E-01
 -.14346043952E+01 -.10286832956E+01 0.67178922081E-01 0.15333903357E+01 0.29716645564E+01
 0.40517624582E+01 0.46223841820E+01 0.47387557902E+01 0.46035576238E+01 0.44493380883E+01
 0.43891756151E+01 0.44493581430E+01 0.46035593719E+01 0.47387395397E+01 0.46223978723E+01
 0.40518046696E+01 0.29716323631E+01 0.15331822893E+01 0.66843568602E-01 -.10289442339E+01
 -.27347372876E+00 0.71344900489E+00 0.20233874408E+01 0.32903331568E+01 0.42173696388E+01
 0.46769581767E+01 0.47317299149E+01 0.45760637427E+01 0.44209347148E+01 0.43611637024E+01
 0.44209136811E+01 0.45760736082E+01 0.47317785532E+01 0.46769746192E+01 0.42173155346E+01
 0.32903200349E+01 0.20235896631E+01 0.71386100350E+00 -.27312174442E+00 -.64018959580E+00
 0.71344900489E+00 0.18024667379E+01 0.30064871310E+01 0.40043419596E+01 0.45990578746E+01
 0.47736071015E+01 0.46666259420E+01 0.44873278973E+01 0.43747064681E+01 0.43746822582E+01
 0.44872969554E+01 0.46666454224E+01 0.47736506530E+01 0.45990496414E+01 0.40042891457E+01
 0.30065147840E+01 0.18026677657E+01 0.71372720964E+00 0.66844022546E-01 0.66711951219E-01
 0.20233874408E+01 0.30064871310E+01 0.39190688116E+01 0.45352267549E+01 0.47762441709E+01
 0.47177782300E+01 0.45336011469E+01 0.43811548526E+01 0.43236993019E+01 0.43811018221E+01
 0.45335569481E+01 0.47177806186E+01 0.47762573916E+01 0.45352026545E+01 0.39190282961E+01
 0.30065045476E+01 0.20234847112E+01 0.12656010715E+01 0.98080646688E+00 0.12655040955E+01
 0.32903331568E+01 0.40043419596E+01 0.45352267549E+01 0.47722664347E+01 0.47383580559E+01
 0.45600553648E+01 0.43836477708E+01 0.42796266247E+01 0.42795967266E+01 0.43835776320E+01
 0.45599893323E+01 0.47383262962E+01 0.47722531012E+01 0.45351941037E+01 0.40042852400E+01
 0.32902888005E+01 0.26077578140E+01 0.21907317203E+01 0.21907284472E+01 0.26077674631E+01
 0.42173696388E+01 0.45990578746E+01 0.47762441709E+01 0.47383580559E+01 0.45685508678E+01
 0.43844088817E+01 0.42505860474E+01 0.42018052273E+01 0.42505304288E+01 0.43843193560E+01
 0.45684645132E+01 0.47383043016E+01 0.47762157389E+01 0.45990183718E+01 0.42172926030E+01
 0.37443756578E+01 0.33543533807E+01 0.32035247762E+01 0.33544233822E+01 0.37444740018E+01
 0.46769581767E+01 0.47736071015E+01 0.47177782300E+01 0.45600553648E+01 0.43844088817E+01
 0.42405602355E+01 0.41601001682E+01 0.41600772641E+01 0.42404985906E+01 0.43843270676E+01
 0.45599769115E+01 0.47177246486E+01 0.47735756396E+01 0.46769125240E+01 0.44525090332E+01
 0.41951260734E+01 0.40250365311E+01 0.40250876010E+01 0.41952357943E+01 0.44526000764E+01
 0.47317299149E+01 0.46666259420E+01 0.45336011469E+01 0.43836477708E+01 0.42505860474E+01
 0.41601001682E+01 0.41281626860E+01 0.41601045650E+01 0.42505720458E+01 0.43836041326E+01
 0.45335458787E+01 0.46665821825E+01 0.47316935579E+01 0.46999766753E+01 0.45966053055E+01
 0.44877582689E+01 0.44418921642E+01 0.44878178141E+01 0.45966816219E+01 0.47000319097E+01
 0.45760637427E+01 0.44873278973E+01 0.43811548526E+01 0.42796266247E+01 0.42018052273E+01
 0.41600772641E+01 0.41601045650E+01 0.42018594282E+01 0.42796579724E+01 0.43811466520E+01
 0.44873000280E+01 0.45760329520E+01 0.46252655398E+01 0.46220201406E+01 0.45848221791E+01
 0.45514455365E+01 0.45514621065E+01 0.45848626808E+01 0.46220635353E+01 0.46253005722E+01
 0.44209347148E+01 0.43747064681E+01 0.43236993019E+01 0.42795967266E+01 0.42505304288E+01
 0.42404985906E+01 0.42505720458E+01 0.42796579724E+01 0.43237508583E+01 0.43747296681E+01
 0.44209317708E+01 0.44508320435E+01 0.44586887733E+01 0.44477322126E+01 0.44297072182E+01
 0.44211258752E+01 0.44297165891E+01 0.44477479469E+01 0.44587078220E+01 0.44508484117E+01
 0.43611637024E+01 0.43746822582E+01 0.43811018221E+01 0.43835776320E+01 0.43843193560E+01
 0.43843270676E+01 0.43836041326E+01 0.43811466520E+01 0.43747296681E+01 0.43611932779E+01
 0.43378369070E+01 0.43046702240E+01 0.42662561310E+01 0.42315109614E+01 0.42106835184E+01
 0.42106757106E+01 0.42314941893E+01 0.42662437457E+01 0.43046659599E+01 0.43378278574E+01
 0.44209136811E+01 0.44872969554E+01 0.45335569481E+01 0.45599893323E+01 0.45684645132E+01
 0.45599769115E+01 0.45335458787E+01 0.44873000280E+01 0.44209317708E+01 0.43378369070E+01
 0.42457220124E+01 0.41555767241E+01 0.40796173041E+01 0.40288857307E+01 0.40110522071E+01
 0.40288654970E+01 0.40795872506E+01 0.41555462497E+01 0.42456939207E+01 0.43378114886E+01
 0.45760736082E+01 0.46666454224E+01 0.47177806186E+01 0.47383262962E+01 0.47383043016E+01
 0.47177246486E+01 0.46665821825E+01 0.45760329520E+01 0.44508320435E+01 0.43046702240E+01
 0.41555767241E+01 0.40233677906E+01 0.39252291991E+01 0.38731548605E+01 0.38731440194E+01
 0.39252008246E+01 0.40233296432E+01 0.41555379984E+01 0.43046434414E+01 0.44508347646E+01
 0.47317785532E+01 0.47736506530E+01 0.47762573916E+01 0.47722531012E+01 0.47762157389E+01
 0.47735756396E+01 0.47316935579E+01 0.46252655398E+01 0.44586887733E+01 0.42662561310E+01
 0.40796173041E+01 0.39252291991E+01 0.38239725909E+01 0.37887708787E+01 0.38239538355E+01
 0.39251936972E+01 0.40795769084E+01 0.42662334025E+01 0.44587078220E+01 0.46253287769E+01
 0.46769746192E+01 0.45990496414E+01 0.45352026545E+01 0.45351941037E+01 0.45990183718E+01
 0.46769125240E+01 0.46999766753E+01 0.46220201406E+01 0.44477322126E+01 0.42315109614E+01
 0.40288857307E+01 0.38731548605E+01 0.37887708787E+01 0.37887688186E+01 0.38731407828E+01
 0.40288548959E+01 0.42314883767E+01 0.44477527350E+01 0.46220869663E+01 0.47000585878E+01
 0.42173155346E+01 0.40042891457E+01 0.39190282961E+01 0.40042852400E+01 0.42172926030E+01
 0.44525090332E+01 0.45966053055E+01 0.45848221791E+01 0.44297072182E+01 0.42106835184E+01
 0.40110522071E+01 0.38731440194E+01 0.38239538355E+01 0.38731407828E+01 0.40110439125E+01
 0.42106775512E+01 0.44297207239E+01 0.45848652070E+01 0.45966656233E+01 0.44525585586E+01
 0.32903200349E+01 0.30065147840E+01 0.30065045476E+01 0.32902888005E+01 0.37443756578E+01
 0.41951260734E+01 0.44877582689E+01 0.45514455365E+01 0.44211258752E+01 0.42106757106E+01
 0.40288654970E+01 0.39252008246E+01 0.39251936972E+01 0.40288548959E+01 0.42106775512E+01
 0.44211384731E+01 0.45514623670E+01 0.44877843040E+01 0.41951666444E+01 0.37444207387E+01
 0.20235896631E+01 0.18026677657E+01 0.20234847112E+01 0.26077578140E+01 0.33543533807E+01
 0.40250365311E+01 0.44418921642E+01 0.45514621065E+01 0.44297165891E+01 0.42314941893E+01
 0.40795872506E+01 0.40233296432E+01 0.40795769084E+01 0.42314883767E+01 0.44297207239E+01
 0.45514623670E+01 0.44418810622E+01 0.40250435656E+01 0.33544233822E+01 0.26078844254E+01
 0.71386100350E+00 0.71372720964E+00 0.12656010715E+01 0.21907317203E+01 0.32035247762E+01
 0.40250876010E+01 0.44878178141E+01 0.45848626808E+01 0.44477479469E+01 0.42662437457E+01
 0.41555462497E+01 0.41555379984E+01 0.42662334025E+01 0.44477527350E+01 0.45848652070E+01
 0.44877843040E+01 0.40250435656E+01 0.32035761402E+01 0.21909487012E+01 0.12658856032E+01
 -.27312174442E+00 0.66844022546E-01 0.98080646688E+00 0.21907284472E+01 0.33544233822E+01
 0.41952357943E+01 0.45966816219E+01 0.46220635353E+01 0.44587078220E+01 0.43046659599E+01
 0.42456939207E+01 0.43046434414E+01 0.44587078220E+01 0.46220869663E+01 0.45966656233E+01
 0.41951666444E+01 0.33544233822E+01 0.21909487012E+01 0.98121457918E+00 0.67179376025E-01
 -.64018959580E+00 0.66711951219E-01 0.12655040955E+01 0.26077674631E+01 0.37444740018E+01
 0.44526000764E+01 0.47000319097E+01 0.46253005722E+01 0.44508484117E+01 0.43378278574E+01
 0.43378114886E+01 0.44508347646E+01 0.46253287769E+01 0.47000585878E+01 0.44525585586E+01
 0.37444207387E+01 0.26078844254E+01 0.12658856032E+01 0.67179376025E-01 -.63997616614E+00
 0.12859191672E+01 0.22434301733E+01 0.32899459674E+01 0.41381602499E+01 0.46173110872E+01
 0.47218779565E+01 0.45867282413E+01 0.44048384879E+01 0.42935015086E+01 0.42935139410E+01
 0.44048477508E+01 0.45867019669E+01 0.47218531797E+01 0.46173775687E+01 0.41383669414E+01
 0.32902492303E+01 0.22437309350E+01 0.12861295970E+01 0.71398008549E+00 0.71390569265E+00
 0.22434301733E+01 0.31605189072E+01 0.40040258213E+01 0.45618217506E+01 0.47634207760E+01
 0.46856756573E+01 0.44974981089E+01 0.43455861430E+01 0.42886295604E+01 0.43455845764E+01
 0.44974671489E+01 0.46856144782E+01 0.47633854389E+01 0.45618944426E+01 0.40042568050E+01
 0.31608864971E+01 0.22438262152E+01 0.15334471226E+01 0.12659048185E+01 0.15331858570E+01
 0.32899459674E+01 0.40040258213E+01 0.45351482773E+01 0.47723479028E+01 0.47384270110E+01
 0.45600495518E+01 0.43836287858E+01 0.42796466845E+01 0.42796305090E+01 0.43835852956E+01
 0.45599834973E+01 0.47383415518E+01 0.47722788054E+01 0.45351867628E+01 0.40042583848E+01
 0.32903470438E+01 0.26079840591E+01 0.21910356247E+01 0.21908702236E+01 0.26075892816E+01
 0.41381602499E+01 0.45618217506E+01 0.47723479028E+01 0.47543008675E+01 0.45911544879E+01
 0.44068184415E+01 0.42719126475E+01 0.42226044984E+01 0.42718639822E+01 0.44067432488E+01
 0.45910612759E+01 0.47541856807E+01 0.47722462192E+01 0.45618331501E+01 0.41383636066E+01
 0.36241640469E+01 0.32037065718E+01 0.30415469498E+01 0.32034458590E+01 0.36238304889E+01
 0.46173110872E+01 0.47634207760E+01 0.47384270110E+01 0.45911544879E+01 0.44146294588E+01
 0.42678295650E+01 0.41851053144E+01 0.41850698097E+01 0.42677480408E+01 0.44145412653E+01
 0.45910600374E+01 0.47383069282E+01 0.47633048004E+01 0.46172903478E+01 0.43346573722E+01
 0.40251129298E+01 0.38240805414E+01 0.38239870407E+01 0.40249192718E+01 0.43345297851E+01
 0.47218779565E+01 0.46856756573E+01 0.45600495518E+01 0.44068184415E+01 0.42678295650E+01
 0.41721763784E+01 0.41381991791E+01 0.41721137535E+01 0.42677576726E+01 0.44067644461E+01
 0.45599792730E+01 0.46855619673E+01 0.47217624416E+01 0.46433572057E+01 0.44877525457E+01
 0.43377742613E+01 0.42762503629E+01 0.43377137813E+01 0.44877093409E+01 0.46434010834E+01
 0.45867282413E+01 0.44974981089E+01 0.43836287858E+01 0.42719126475E+01 0.41851053144E+01
 0.41381991791E+01 0.41381806042E+01 0.41850702203E+01 0.42718904837E+01 0.43836153794E+01
 0.44974603319E+01 0.45866523370E+01 0.46192744864E+01 0.45847841361E+01 0.45138110082E+01
 0.44586263976E+01 0.44586319381E+01 0.45138377394E+01 0.45848462220E+01 0.46193612708E+01
 0.44048384879E+01 0.43455861430E+01 0.42796466845E+01 0.42226044984E+01 0.41850698097E+01
 0.41721137535E+01 0.41850702203E+01 0.42226127818E+01 0.42796681924E+01 0.43456109049E+01
 0.44048430610E+01 0.44417452940E+01 0.44476953870E+01 0.44244762409E+01 0.43923091070E+01
 0.43776316189E+01 0.43923448384E+01 0.44245378217E+01 0.44477578684E+01 0.44417791746E+01
 0.42935015086E+01 0.42886295604E+01 0.42796305090E+01 0.42718639822E+01 0.42677480408E+01
 0.42677576726E+01 0.42718904837E+01 0.42796681924E+01 0.42886708549E+01 0.42935379429E+01
 0.42874542843E+01 0.42662318722E+01 0.42326113283E+01 0.41972617902E+01 0.41744762444E+01
 0.41744872783E+01 0.41972854324E+01 0.42326279843E+01 0.42662285599E+01 0.42874309707E+01
 0.42935139410E+01 0.43455845764E+01 0.43835852956E+01 0.44067432488E+01 0.44145412653E+01
 0.44067644461E+01 0.43836153794E+01 0.43456109049E+01 0.42935379429E+01 0.42289837745E+01
 0.41555669581E+01 0.40802116586E+01 0.40132708298E+01 0.39665834764E+01 0.39497800369E+01
 0.39665807789E+01 0.40132515427E+01 0.40801725089E+01 0.41555231435E+01 0.42289509616E+01
 0.44048477508E+01 0.44974671489E+01 0.45599834973E+01 0.45910612759E+01 0.45910600374E+01
 0.45599792730E+01 0.44974603319E+01 0.44048430610E+01 0.42874542843E+01 0.41555669581E+01
 0.40233553517E+01 0.39064911056E+01 0.38193997272E+01 0.37729519687E+01 0.37729402210E+01
 0.38193668194E+01 0.39064453492E+01 0.40233119178E+01 0.41555404148E+01 0.42874474372E+01
 0.45867019669E+01 0.46856144782E+01 0.47383415518E+01 0.47541856807E+01 0.47383069282E+01
 0.46855619673E+01 0.45866523370E+01 0.44417452940E+01 0.42662318722E+01 0.40802116586E+01
 0.39064911056E+01 0.37662969483E+01 0.36757465610E+01 0.36444937482E+01 0.36757122294E+01
 0.37662505518E+01 0.39064574497E+01 0.40802022085E+01 0.42662449876E+01 0.44417790292E+01
 0.47218531797E+01 0.47633854389E+01 0.47722788054E+01 0.47722462192E+01 0.47633048004E+01
 0.47217624416E+01 0.46192744864E+01 0.44476953870E+01 0.42326113283E+01 0.40132708298E+01
 0.38193997272E+01 0.36757465610E+01 0.35995661960E+01 0.35995532518E+01 0.36757171017E+01
 0.38193742822E+01 0.40132621238E+01 0.42326242759E+01 0.44477350261E+01 0.46193440876E+01
 0.46173775687E+01 0.45618944426E+01 0.45351867628E+01 0.45618331501E+01 0.46172903478E+01
 0.46433572057E+01 0.45847841361E+01 0.44244762409E+01 0.41972617902E+01 0.39665834764E+01
 0.37729519687E+01 0.36444937482E+01 0.35995532518E+01 0.36444907794E+01 0.37729448507E+01
 0.39665759288E+01 0.41972642230E+01 0.44244977402E+01 0.45848319089E+01 0.46434331830E+01
 0.41383669414E+01 0.40042568050E+01 0.40042583848E+01 0.41383636066E+01 0.43346573722E+01
 0.44877525457E+01 0.45138110082E+01 0.43923091070E+01 0.41744762444E+01 0.39497800369E+01
 0.37729402210E+01 0.36757122294E+01 0.36757171017E+01 0.37729448507E+01 0.39497719766E+01
 0.41744660865E+01 0.43923190425E+01 0.45138456095E+01 0.44877909590E+01 0.43346783746E+01
 0.32902492303E+01 0.31608864971E+01 0.32903470438E+01 0.36241640469E+01 0.40251129298E+01
 0.43377742613E+01 0.44586263976E+01 0.43776316189E+01 0.41744872783E+01 0.39665807789E+01
 0.38193668194E+01 0.37662505518E+01 0.38193742822E+01 0.39665759288E+01 0.41744660865E+01
 0.43776221208E+01 0.44586529161E+01 0.43378061632E+01 0.40250851990E+01 0.36240625358E+01
 0.22437309350E+01 0.22438262152E+01 0.26079840591E+01 0.32037065718E+01 0.38240805414E+01
 0.42762503629E+01 0.44586319381E+01 0.43923448384E+01 0.41972854324E+01 0.40132515427E+01
 0.39064453492E+01 0.39064574497E+01 0.40132621238E+01 0.41972642230E+01 0.43923190425E+01
 0.44586529161E+01 0.42762997180E+01 0.38240615255E+01 0.32035577723E+01 0.26077812665E+01
 0.12861295970E+01 0.15334471226E+01 0.21910356247E+01 0.30415469498E+01 0.38239870407E+01
 0.43377137813E+01 0.45138377394E+01 0.44245378217E+01 0.42326279843E+01 0.40801725089E+01
 0.40233119178E+01 0.40802022085E+01 0.42326242759E+01 0.44244977402E+01 0.45138456095E+01
 0.43378061632E+01 0.38240615255E+01 0.30414696081E+01 0.21908153707E+01 0.15332533469E+01
 0.71398008549E+00 0.12659048185E+01 0.21908702236E+01 0.32034458590E+01 0.40249192718E+01
 0.44877093409E+01 0.45848462220E+01 0.44477578684E+01 0.42662285599E+01 0.41555231435E+01
 0.41555404148E+01 0.42662449876E+01 0.44477350261E+01 0.45848319089E+01 0.44877909590E+01
 0.40250851990E+01 0.32035577723E+01 0.21908153707E+01 0.12657428479E+01 0.71389288636E+00
 0.71390569265E+00 0.15331858570E+01 0.26075892816E+01 0.36238304889E+01 0.43345297851E+01
 0.46434010834E+01 0.46193612708E+01 0.44417791746E+01 0.42874309707E+01 0.42289509616E+01
 0.42874474372E+01 0.44417790292E+01 0.46193440876E+01 0.46434331830E+01 0.43346783746E+01
 0.36240625358E+01 0.26077812665E+01 0.15332533469E+01 0.71389288636E+00 0.40768299370E+00
 0.28247287454E+01 0.35619102701E+01 0.42172495632E+01 0.46171770335E+01 0.47141941246E+01
 0.45878745729E+01 0.43917516218E+01 0.42419118144E+01 0.41863920395E+01 0.42418939357E+01
 0.43917259611E+01 0.45878882223E+01 0.47143013818E+01 0.46173448320E+01 0.42173254723E+01
 0.35617484845E+01 0.28243737854E+01 0.22435968813E+01 0.20234695875E+01 0.22438948665E+01
 0.35619102701E+01 0.41675066221E+01 0.45988407870E+01 0.47632000458E+01 0.46900443828E+01
 0.45012088064E+01 0.43256459708E+01 0.42233520251E+01 0.42233473163E+01 0.43256132531E+01