       N       E                     dE             d eps       ncg     rms          rms(c)
DAV:   1    -0.343526318937E+01   -0.34353E+01   -0.13453E+03   774   0.290E+02
DAV:   2    -0.482220591679E+01   -0.13869E+01   -0.13565E+01   978   0.268E+01
DAV:   3    -0.482799200069E+01   -0.57861E-02   -0.57860E-02   774   0.160E+00
DAV:   4    -0.482799429647E+01   -0.22958E-05   -0.22981E-05   966   0.309E-02
DAV:   5    -0.482799429877E+01   -0.23019E-08   -0.19253E-09   648   0.219E-04    0.121E+00
DAV:   6    -0.479135093492E+01    0.36643E-01   -0.41872E-03   738   0.434E-01    0.733E-01
DAV:   7    -0.476961854781E+01    0.21732E-01   -0.97852E-03   732   0.665E-01    0.255E-02
DAV:   8    -0.476960997208E+01    0.85757E-05   -0.13020E-05   666   0.344E-02
   1 F= -.47696100E+01 E0= -.47694742E+01  d E =-.271554E-03
