diamond Si                              
   5.20000000000000     
     0.000000    0.490819    0.490819
     0.490819    0.000000    0.490819
     0.490819    0.490819    0.000000
   Si
     2
Direct
  0.875000  0.875000  0.875000
  0.125000  0.125000  0.125000
 
   28   28   28
 0.22237271187E+02 0.22082808913E+02 0.21533578498E+02 0.20320680814E+02 0.18369677120E+02
 0.16065472382E+02 0.14165985868E+02 0.13427260272E+02 0.14165855756E+02 0.16065262705E+02
 0.18369446193E+02 0.20320503189E+02 0.21533561136E+02 0.22083003798E+02 0.22237569294E+02
 0.22083003798E+02 0.21533561136E+02 0.20320503189E+02 0.18369446193E+02 0.16065262705E+02
 0.14165855756E+02 0.13427260272E+02 0.14165985868E+02 0.16065472382E+02 0.18369677120E+02
 0.20320680814E+02 0.21533578498E+02 0.22082808913E+02 0.22082808913E+02 0.22098161575E+02
 0.21272031047E+02 0.19314683883E+02 0.16475100760E+02 0.13594823552E+02 0.11769010270E+02
 0.11768847255E+02 0.13594566243E+02 0.16475072885E+02 0.19314784493E+02 0.21271919280E+02
 0.22097872111E+02 0.22082796883E+02 0.21651779899E+02 0.20945714400E+02 0.19950974242E+02
 0.18569854822E+02 0.16870964886E+02 0.15240103065E+02 0.14225221405E+02 0.14225173594E+02
 0.15240189746E+02 0.16871444675E+02 0.18570432133E+02 0.19951067443E+02 0.20945247041E+02
 0.21651319878E+02 0.21533578498E+02 0.21272031047E+02 0.19637550501E+02 0.16623138576E+02
 0.12962281178E+02 0.99313940515E+01 0.87528702686E+01 0.99309369468E+01 0.12961784412E+02
 0.16622973467E+02 0.19637701410E+02 0.21272247305E+02 0.21533707561E+02 0.20945292300E+02
 0.20014825790E+02 0.18899986768E+02 0.17642741866E+02 0.16280328738E+02 0.14943370677E+02
 0.13925703631E+02 0.13541433013E+02 0.13925597225E+02 0.14943370318E+02 0.16280559163E+02
 0.17643069811E+02 0.18900202544E+02 0.20014878315E+02 0.20945247041E+02 0.20320680814E+02
 0.19314683883E+02 0.16623138576E+02 0.12694046759E+02 0.87358131999E+01 0.62417086814E+01
 0.62414066838E+01 0.87351342362E+01 0.12693487120E+02 0.16623082179E+02 0.19315126220E+02
 0.20321219284E+02 0.19951190499E+02 0.18899748857E+02 0.17637587355E+02 0.16310288287E+02
 0.14990145938E+02 0.13765735068E+02 0.12784140678E+02 0.12225613445E+02 0.12225626467E+02
 0.12784055719E+02 0.13765466614E+02 0.14989975986E+02 0.16310577763E+02 0.17638230646E+02
 0.18900202544E+02 0.19951067443E+02 0.18369677120E+02 0.16475100760E+02 0.12962281178E+02
 0.87358131999E+01 0.52658284234E+01 0.39226862769E+01 0.52654058551E+01 0.87354015166E+01
 0.12962242677E+02 0.16475357887E+02 0.18369891996E+02 0.18570423648E+02 0.17642931152E+02
 0.16310456524E+02 0.14903731481E+02 0.13549691718E+02 0.12328651022E+02 0.11327960663E+02
 0.10657962060E+02 0.10420511905E+02 0.10657854992E+02 0.11327861443E+02 0.12328638532E+02
 0.13549740224E+02 0.14903806564E+02 0.16310577763E+02 0.17643069811E+02 0.18570432133E+02
 0.16065472382E+02 0.13594823552E+02 0.99313940515E+01 0.62417086814E+01 0.39226862769E+01
 0.39225415414E+01 0.62415091501E+01 0.99314911978E+01 0.13595145501E+02 0.16065604885E+02
 0.16871257628E+02 0.16280438173E+02 0.14990247409E+02 0.13550133611E+02 0.12155363247E+02
 0.10909248522E+02 0.98810792032E+01 0.91368508136E+01 0.87424197642E+01 0.87422450659E+01
 0.91366347349E+01 0.98812283705E+01 0.10909571574E+02 0.12155345233E+02 0.13549740224E+02
 0.14989975986E+02 0.16280559163E+02 0.16871444675E+02 0.14165985868E+02 0.11769010270E+02
 0.87528702686E+01 0.62414066838E+01 0.52654058551E+01 0.62415091501E+01 0.87530694731E+01
 0.11769271140E+02 0.14166236161E+02 0.15240355937E+02 0.14943432864E+02 0.13765473164E+02
 0.12328659722E+02 0.10909638644E+02 0.96326024987E+01 0.85699154461E+01 0.77685952606E+01
 0.72672311250E+01 0.70961086751E+01 0.72672448207E+01 0.77685882670E+01 0.85698609163E+01
 0.96325172829E+01 0.10909571574E+02 0.12328638532E+02 0.13765466614E+02 0.14943370318E+02
 0.15240189746E+02 0.13427260272E+02 0.11768847255E+02 0.99309369468E+01 0.87351342362E+01
 0.87354015166E+01 0.99314911978E+01 0.11769271140E+02 0.13427465035E+02 0.14225359677E+02
 0.13925806471E+02 0.12784066251E+02 0.11327605636E+02 0.98810313704E+01 0.85700310983E+01
 0.74691247720E+01 0.66178109994E+01 0.60378947822E+01 0.57438638565E+01 0.57440513159E+01
 0.60381699275E+01 0.66177423826E+01 0.74687766147E+01 0.85698609163E+01 0.98812283705E+01
 0.11327861443E+02 0.12784055719E+02 0.13925597225E+02 0.14225173594E+02 0.14165855756E+02
 0.13594566243E+02 0.12961784412E+02 0.12693487120E+02 0.12962242677E+02 0.13595145501E+02
 0.14166236161E+02 0.14225359677E+02 0.13541466569E+02 0.12225650160E+02 0.10657864742E+02
 0.91366140566E+01 0.77685459259E+01 0.66176764879E+01 0.57154068424E+01 0.50715388296E+01
 0.46863049771E+01 0.45581419051E+01 0.46863996304E+01 0.50716695733E+01 0.57155125204E+01
 0.66177423826E+01 0.77685882670E+01 0.91366347349E+01 0.10657854992E+02 0.12225626467E+02
 0.13541433013E+02 0.14225221405E+02 0.16065262705E+02 0.16475072885E+02 0.16622973467E+02
 0.16623082179E+02 0.16475357887E+02 0.16065604885E+02 0.15240355937E+02 0.13925806471E+02
 0.12225650160E+02 0.10420594989E+02 0.87423408978E+01 0.72671882167E+01 0.60378924877E+01
 0.50713427852E+01 0.43648179729E+01 0.39055934476E+01 0.36800461613E+01 0.36799807356E+01
 0.39055276478E+01 0.43649571551E+01 0.50716695733E+01 0.60381699275E+01 0.72672448207E+01
 0.87422450659E+01 0.10420511905E+02 0.12225613445E+02 0.13925703631E+02 0.15240103065E+02
 0.18369446193E+02 0.19314784493E+02 0.19637701410E+02 0.19315126220E+02 0.18369891996E+02
 0.16871257628E+02 0.14943432864E+02 0.12784066251E+02 0.10657864742E+02 0.87423408978E+01
 0.70960418541E+01 0.57439976596E+01 0.46863674086E+01 0.39055082111E+01 0.33751754037E+01
 0.30694639380E+01 0.29698083302E+01 0.30694832741E+01 0.33751970596E+01 0.39055276478E+01
 0.46863996304E+01 0.57440513159E+01 0.70961086751E+01 0.87424197642E+01 0.10657962060E+02
 0.12784140678E+02 0.14943370677E+02 0.16870964886E+02 0.20320503189E+02 0.21271919280E+02
 0.21272247305E+02 0.20321219284E+02 0.18570423648E+02 0.16280438173E+02 0.13765473164E+02
 0.11327605636E+02 0.91366140566E+01 0.72671882167E+01 0.57439976596E+01 0.45583629886E+01
 0.36801577144E+01 0.30695308714E+01 0.26876944104E+01 0.25048299348E+01 0.25048655686E+01
 0.26877427407E+01 0.30694832741E+01 0.36799807356E+01 0.45581419051E+01 0.57438638565E+01
 0.72672311250E+01 0.91368508136E+01 0.11327960663E+02 0.13765735068E+02 0.16280328738E+02
 0.18569854822E+02 0.21533561136E+02 0.22097872111E+02 0.21533707561E+02 0.19951190499E+02
 0.17642931152E+02 0.14990247409E+02 0.12328659722E+02 0.98810313704E+01 0.77685459259E+01
 0.60378924877E+01 0.46863674086E+01 0.36801577144E+01 0.29699365935E+01 0.25049767751E+01
 0.22436995094E+01 0.21595929508E+01 0.22436345550E+01 0.25048655686E+01 0.29698083302E+01
 0.36800461613E+01 0.46863049771E+01 0.60378947822E+01 0.77685952606E+01 0.98810792032E+01
 0.12328651022E+02 0.14990145938E+02 0.17642741866E+02 0.19950974242E+02 0.22083003798E+02
 0.22082796883E+02 0.20945292300E+02 0.18899748857E+02 0.16310456524E+02 0.13550133611E+02
 0.10909638644E+02 0.85700310983E+01 0.66176764879E+01 0.50713427852E+01 0.39055082111E+01
 0.30695308714E+01 0.25049767751E+01 0.21597213514E+01 0.19965376720E+01 0.19964890146E+01
 0.21595929508E+01 0.25048299348E+01 0.30694639380E+01 0.39055934476E+01 0.50715388296E+01
 0.66178109994E+01 0.85699154461E+01 0.10909248522E+02 0.13549691718E+02 0.16310288287E+02
 0.18899986768E+02 0.20945714400E+02 0.22237569294E+02 0.21651779899E+02 0.20014825790E+02
 0.17637587355E+02 0.14903731481E+02 0.12155363247E+02 0.96326024987E+01 0.74691247720E+01
 0.57154068424E+01 0.43648179729E+01 0.33751754037E+01 0.26876944104E+01 0.22436995094E+01
 0.19965376720E+01 0.19173583128E+01 0.19965376720E+01 0.22436995094E+01 0.26876944104E+01
 0.33751754037E+01 0.43648179729E+01 0.57154068424E+01 0.74691247720E+01 0.96326024987E+01
 0.12155363247E+02 0.14903731481E+02 0.17637587355E+02 0.20014825790E+02 0.21651779899E+02
 0.22083003798E+02 0.20945714400E+02 0.18899986768E+02 0.16310288287E+02 0.13549691718E+02
 0.10909248522E+02 0.85699154461E+01 0.66178109994E+01 0.50715388296E+01 0.39055934476E+01
 0.30694639380E+01 0.25048299348E+01 0.21595929508E+01 0.19964890146E+01 0.19965376720E+01
 0.21597213514E+01 0.25049767751E+01 0.30695308714E+01 0.39055082111E+01 0.50713427852E+01
 0.66176764879E+01 0.85700310983E+01 0.10909638644E+02 0.13550133611E+02 0.16310456524E+02
 0.18899748857E+02 0.20945292300E+02 0.22082796883E+02 0.21533561136E+02 0.19950974242E+02
 0.17642741866E+02 0.14990145938E+02 0.12328651022E+02 0.98810792032E+01 0.77685952606E+01
 0.60378947822E+01 0.46863049771E+01 0.36800461613E+01 0.29698083302E+01 0.25048655686E+01
 0.22436345550E+01 0.21595929508E+01 0.22436995094E+01 0.25049767751E+01 0.29699365935E+01
 0.36801577144E+01 0.46863674086E+01 0.60378924877E+01 0.77685459259E+01 0.98810313704E+01
 0.12328659722E+02 0.14990247409E+02 0.17642931152E+02 0.19951190499E+02 0.21533707561E+02
 0.22097872111E+02 0.20320503189E+02 0.18569854822E+02 0.16280328738E+02 0.13765735068E+02
 0.11327960663E+02 0.91368508136E+01 0.72672311250E+01 0.57438638565E+01 0.45581419051E+01
 0.36799807356E+01 0.30694832741E+01 0.26877427407E+01 0.25048655686E+01 0.25048299348E+01
 0.26876944104E+01 0.30695308714E+01 0.36801577144E+01 0.45583629886E+01 0.57439976596E+01
 0.72671882167E+01 0.91366140566E+01 0.11327605636E+02 0.13765473164E+02 0.16280438173E+02
 0.18570423648E+02 0.20321219284E+02 0.21272247305E+02 0.21271919280E+02 0.18369446193E+02
 0.16870964886E+02 0.14943370677E+02 0.12784140678E+02 0.10657962060E+02 0.87424197642E+01
 0.70961086751E+01 0.57440513159E+01 0.46863996304E+01 0.39055276478E+01 0.33751970596E+01
 0.30694832741E+01 0.29698083302E+01 0.30694639380E+01 0.33751754037E+01 0.39055082111E+01
 0.46863674086E+01 0.57439976596E+01 0.70960418541E+01 0.87423408978E+01 0.10657864742E+02
 0.12784066251E+02 0.14943432864E+02 0.16871257628E+02 0.18369891996E+02 0.19315126220E+02
 0.19637701410E+02 0.19314784493E+02 0.16065262705E+02 0.15240103065E+02 0.13925703631E+02
 0.12225613445E+02 0.10420511905E+02 0.87422450659E+01 0.72672448207E+01 0.60381699275E+01
 0.50716695733E+01 0.43649571551E+01 0.39055276478E+01 0.36799807356E+01 0.36800461613E+01
 0.39055934476E+01 0.43648179729E+01 0.50713427852E+01 0.60378924877E+01 0.72671882167E+01
 0.87423408978E+01 0.10420594989E+02 0.12225650160E+02 0.13925806471E+02 0.15240355937E+02
 0.16065604885E+02 0.16475357887E+02 0.16623082179E+02 0.16622973467E+02 0.16475072885E+02
 0.14165855756E+02 0.14225221405E+02 0.13541433013E+02 0.12225626467E+02 0.10657854992E+02
 0.91366347349E+01 0.77685882670E+01 0.66177423826E+01 0.57155125204E+01 0.50716695733E+01
 0.46863996304E+01 0.45581419051E+01 0.46863049771E+01 0.50715388296E+01 0.57154068424E+01
 0.66176764879E+01 0.77685459259E+01 0.91366140566E+01 0.10657864742E+02 0.12225650160E+02
 0.13541466569E+02 0.14225359677E+02 0.14166236161E+02 0.13595145501E+02 0.12962242677E+02
 0.12693487120E+02 0.12961784412E+02 0.13594566243E+02 0.13427260272E+02 0.14225173594E+02
 0.13925597225E+02 0.12784055719E+02 0.11327861443E+02 0.98812283705E+01 0.85698609163E+01
 0.74687766147E+01 0.66177423826E+01 0.60381699275E+01 0.57440513159E+01 0.57438638565E+01
 0.60378947822E+01 0.66178109994E+01 0.74691247720E+01 0.85700310983E+01 0.98810313704E+01
 0.11327605636E+02 0.12784066251E+02 0.13925806471E+02 0.14225359677E+02 0.13427465035E+02
 0.11769271140E+02 0.99314911978E+01 0.87354015166E+01 0.87351342362E+01 0.99309369468E+01
 0.11768847255E+02 0.14165985868E+02 0.15240189746E+02 0.14943370318E+02 0.13765466614E+02
 0.12328638532E+02 0.10909571574E+02 0.96325172829E+01 0.85698609163E+01 0.77685882670E+01
 0.72672448207E+01 0.70961086751E+01 0.72672311250E+01 0.77685952606E+01 0.85699154461E+01
 0.96326024987E+01 0.10909638644E+02 0.12328659722E+02 0.13765473164E+02 0.14943432864E+02
 0.15240355937E+02 0.14166236161E+02 0.11769271140E+02 0.87530694731E+01 0.62415091501E+01
 0.52654058551E+01 0.62414066838E+01 0.87528702686E+01 0.11769010270E+02 0.16065472382E+02
 0.16871444675E+02 0.16280559163E+02 0.14989975986E+02 0.13549740224E+02 0.12155345233E+02
 0.10909571574E+02 0.98812283705E+01 0.91366347349E+01 0.87422450659E+01 0.87424197642E+01
 0.91368508136E+01 0.98810792032E+01 0.10909248522E+02 0.12155363247E+02 0.13550133611E+02
 0.14990247409E+02 0.16280438173E+02 0.16871257628E+02 0.16065604885E+02 0.13595145501E+02
 0.99314911978E+01 0.62415091501E+01 0.39225415414E+01 0.39226862769E+01 0.62417086814E+01
 0.99313940515E+01 0.13594823552E+02 0.18369677120E+02 0.18570432133E+02 0.17643069811E+02
 0.16310577763E+02 0.14903806564E+02 0.13549740224E+02 0.12328638532E+02 0.11327861443E+02
 0.10657854992E+02 0.10420511905E+02 0.10657962060E+02 0.11327960663E+02 0.12328651022E+02
 0.13549691718E+02 0.14903731481E+02 0.16310456524E+02 0.17642931152E+02 0.18570423648E+02
 0.18369891996E+02 0.16475357887E+02 0.12962242677E+02 0.87354015166E+01 0.52654058551E+01
 0.39226862769E+01 0.52658284234E+01 0.87358131999E+01 0.12962281178E+02 0.16475100760E+02
 0.20320680814E+02 0.19951067443E+02 0.18900202544E+02 0.17638230646E+02 0.16310577763E+02
 0.14989975986E+02 0.13765466614E+02 0.12784055719E+02 0.12225626467E+02 0.12225613445E+02
 0.12784140678E+02 0.13765735068E+02 0.14990145938E+02 0.16310288287E+02 0.17637587355E+02
 0.18899748857E+02 0.19951190499E+02 0.20321219284E+02 0.19315126220E+02 0.16623082179E+02
 0.12693487120E+02 0.87351342362E+01 0.62414066838E+01 0.62417086814E+01 0.87358131999E+01
 0.12694046759E+02 0.16623138576E+02 0.19314683883E+02 0.21533578498E+02 0.20945247041E+02
 0.20014878315E+02 0.18900202544E+02 0.17643069811E+02 0.16280559163E+02 0.14943370318E+02
 0.13925597225E+02 0.13541433013E+02 0.13925703631E+02 0.14943370677E+02 0.16280328738E+02
 0.17642741866E+02 0.18899986768E+02 0.20014825790E+02 0.20945292300E+02 0.21533707561E+02
 0.21272247305E+02 0.19637701410E+02 0.16622973467E+02 0.12961784412E+02 0.99309369468E+01
 0.87528702686E+01 0.99313940515E+01 0.12962281178E+02 0.16623138576E+02 0.19637550501E+02
 0.21272031047E+02 0.22082808913E+02 0.21651319878E+02 0.20945247041E+02 0.19951067443E+02
 0.18570432133E+02 0.16871444675E+02 0.15240189746E+02 0.14225173594E+02 0.14225221405E+02
 0.15240103065E+02 0.16870964886E+02 0.18569854822E+02 0.19950974242E+02 0.20945714400E+02
 0.21651779899E+02 0.22082796883E+02 0.22097872111E+02 0.21271919280E+02 0.19314784493E+02
 0.16475072885E+02 0.13594566243E+02 0.11768847255E+02 0.11769010270E+02 0.13594823552E+02
 0.16475100760E+02 0.19314683883E+02 0.21272031047E+02 0.22098161575E+02 0.22082744073E+02
 0.22097995452E+02 0.21271921785E+02 0.19314738710E+02 0.16475191508E+02 0.13594765866E+02
 0.11768880083E+02 0.11768933244E+02 0.13594962142E+02 0.16475497127E+02 0.19314920728E+02
 0.21271790309E+02 0.22097723802E+02 0.22082738512E+02 0.21651748182E+02 0.20945719300E+02
 0.19951123622E+02 0.18570104642E+02 0.16871071186E+02 0.15239928813E+02 0.14224937720E+02
 0.14225032786E+02 0.15240201778E+02 0.16871413280E+02 0.18570258392E+02 0.19950873470E+02
 0.20945177109E+02 0.21651330601E+02 0.22097995452E+02 0.21781006795E+02 0.20005810378E+02
 0.16774561032E+02 0.12869334815E+02 0.96433792170E+01 0.83906822410E+01 0.96442601266E+01
 0.12870346633E+02 0.16774966072E+02 0.20005539483E+02 0.21780537817E+02 0.22097755223E+02
 0.21500726623E+02 0.20541351165E+02 0.19393001897E+02 0.18096486036E+02 0.16680893631E+02
 0.15282525582E+02 0.14214611793E+02 0.13811106077E+02 0.14215120330E+02 0.15283034405E+02
 0.16680980458E+02 0.18096198653E+02 0.19392631096E+02 0.20541088486E+02 0.21500666366E+02
 0.21271921785E+02 0.20005810378E+02 0.16856437537E+02 0.12344901946E+02 0.78348878338E+01
 0.50030725758E+01 0.50035839342E+01 0.78358224465E+01 0.12345272756E+02 0.16856130054E+02
 0.20005522592E+02 0.21272036252E+02 0.20975223639E+02 0.19875800129E+02 0.18540521665E+02
 0.17136008682E+02 0.15736016043E+02 0.14431938686E+02 0.13377497179E+02 0.12773753120E+02
 0.12774010169E+02 0.13377897468E+02 0.14431932582E+02 0.15735696559E+02 0.17135935224E+02
 0.18540836842E+02 0.19876035292E+02 0.20975093093E+02 0.19314738710E+02 0.16774561032E+02
 0.12344901946E+02 0.71282481771E+01 0.28848974647E+01 0.12485912502E+01 0.28848251952E+01
 0.71281494314E+01 0.12344849555E+02 0.16774608055E+02 0.19314847935E+02 0.19831555943E+02
 0.18946431707E+02 0.17518976390E+02 0.16001119487E+02 0.14536287631E+02 0.13210470085E+02
 0.12118798893E+02 0.11384828999E+02 0.11124112620E+02 0.11384730299E+02 0.12118611919E+02
 0.13210310799E+02 0.14536334259E+02 0.16001410018E+02 0.17519326521E+02 0.18946616081E+02
 0.19831527606E+02 0.16475191508E+02 0.12869334815E+02 0.78348878338E+01 0.28848974647E+01
 -.19405755646E+00 -.19424531553E+00 0.28846152529E+01 0.78349094236E+01 0.12869541224E+02
 0.16475121672E+02 0.17994116077E+02 0.17687549785E+02 0.16371757105E+02 0.14812032871E+02
 0.13286753855E+02 0.11916310225E+02 0.10779638862E+02 0.99527522843E+01 0.95128990672E+01
 0.95126950448E+01 0.99524331229E+01 0.10779637842E+02 0.11916554485E+02 0.13286812360E+02
 0.14811819272E+02 0.16371684111E+02 0.17687885932E+02 0.17994543461E+02 0.13594765866E+02
 0.96433792170E+01 0.50030725758E+01 0.12485912502E+01 -.19424531553E+00 0.12486081637E+01
 0.50030539678E+01 0.96432819270E+01 0.13594579587E+02 0.15823316865E+02 0.16157518967E+02
 0.15150400898E+02 0.13635741170E+02 0.12092875730E+02 0.10685033562E+02 0.95032339468E+01
 0.86061626766E+01 0.80420166425E+01 0.78488710405E+01 0.80419993533E+01 0.86062344998E+01
 0.95033548511E+01 0.10685003055E+02 0.12092635518E+02 0.13635502280E+02 0.15150384547E+02
 0.16157714372E+02 0.15823564392E+02 0.11768880083E+02 0.83906822410E+01 0.50035839342E+01
 0.28848251952E+01 0.28846152529E+01 0.50030539678E+01 0.83901262291E+01 0.11768651594E+02
 0.14033013827E+02 0.14695758807E+02 0.13977360390E+02 0.12554025925E+02 0.11023895291E+02
 0.95967683997E+01 0.83779302873E+01 0.74249515814E+01 0.67708121153E+01 0.64375131967E+01
 0.64376579870E+01 0.67710474775E+01 0.74249522127E+01 0.83776866545E+01 0.95965903531E+01
 0.11023971457E+02 0.12554153381E+02 0.13977229126E+02 0.14695401697E+02 0.14032807418E+02
 0.11768933244E+02 0.96442601266E+01 0.78358224465E+01 0.71281494314E+01 0.78349094236E+01
 0.96432819270E+01 0.11768651594E+02 0.13336587571E+02 0.13787587096E+02 0.13094515370E+02
 0.11696903878E+02 0.10155772556E+02 0.87069895094E+01 0.74539904009E+01 0.64538405266E+01
 0.57315436163E+01 0.52960353517E+01 0.51505551000E+01 0.52960798199E+01 0.57315873810E+01
 0.64538266919E+01 0.74539162076E+01 0.87069423534E+01 0.10155838007E+02 0.11696992506E+02
 0.13094373147E+02 0.13787132599E+02 0.13336212012E+02 0.13594962142E+02 0.12870346633E+02
 0.12345272756E+02 0.12344849555E+02 0.12869541224E+02 0.13594579587E+02 0.14033013827E+02
 0.13787587096E+02 0.12762612762E+02 0.11215136967E+02 0.95792631557E+01 0.80687995156E+01
 0.67649028317E+01 0.57140123598E+01 0.49327639643E+01 0.44193129719E+01 0.41654718077E+01
 0.41653810262E+01 0.44192321313E+01 0.49329339965E+01 0.57142850503E+01 0.67649453835E+01
 0.80686242188E+01 0.95792004105E+01 0.11215269714E+02 0.12762608386E+02 0.13787267962E+02
 0.14032789659E+02 0.16475497127E+02 0.16774966072E+02 0.16856130054E+02 0.16774608055E+02
 0.16475121672E+02 0.15823316865E+02 0.14695758807E+02 0.13094515370E+02 0.11215136967E+02
 0.93757811932E+01 0.77326730135E+01 0.63373424291E+01 0.52159646431E+01 0.43710966721E+01
 0.37892288673E+01 0.34509026928E+01 0.33401355711E+01 0.34508985286E+01 0.37893075841E+01
 0.43712597720E+01 0.52160982191E+01 0.63373939533E+01 0.77327227303E+01 0.93758715738E+01
 0.11215156784E+02 0.13094374926E+02 0.14695601454E+02 0.15823406729E+02 0.19314920728E+02
 0.20005539483E+02 0.20005522592E+02 0.19314847935E+02 0.17994116077E+02 0.16157518967E+02
 0.13977360390E+02 0.11696903878E+02 0.95792631557E+01 0.77326730135E+01 0.61919135250E+01
 0.49651113954E+01 0.40386326586E+01 0.33848201891E+01 0.29719096843E+01 0.27730927477E+01
 0.27731330206E+01 0.29719610952E+01 0.33847883828E+01 0.40385611384E+01 0.49651344564E+01
 0.61920626796E+01 0.77328246597E+01 0.95793068345E+01 0.11696883481E+02 0.13977398684E+02
 0.16157647220E+02 0.17994251993E+02 0.21271790309E+02 0.21780537817E+02 0.21272036252E+02
 0.19831555943E+02 0.17687549785E+02 0.15150400898E+02 0.12554025925E+02 0.10155772556E+02
 0.80687995156E+01 0.63373424291E+01 0.49651113954E+01 0.39285288803E+01 0.31877023608E+01
 0.26982195430E+01 0.24215964364E+01 0.23323270924E+01 0.24215485322E+01 0.26981375245E+01
 0.31876101430E+01 0.39284423219E+01 0.49650281233E+01 0.63372754852E+01 0.80688159543E+01
 0.10155950966E+02 0.12554335333E+02 0.15150655620E+02 0.17687553536E+02 0.19831313959E+02
 0.22097723802E+02 0.22097755223E+02 0.20975223639E+02 0.18946431707E+02 0.16371757105E+02
 0.13635741170E+02 0.11023895291E+02 0.87069895094E+01 0.67649028317E+01 0.52159646431E+01
 0.40386326586E+01 0.31877023608E+01 0.26093161778E+01 0.22540639547E+01 0.20857701706E+01
 0.20857143548E+01 0.22539428202E+01 0.26092099755E+01 0.31876330912E+01 0.40385666419E+01
 0.52158916185E+01 0.67648673487E+01 0.87070281286E+01 0.11023976102E+02 0.13635789405E+02
 0.16371728595E+02 0.18946349275E+02 0.20975144427E+02 0.22082738512E+02 0.21500726623E+02
 0.19875800129E+02 0.17518976390E+02 0.14812032871E+02 0.12092875730E+02 0.95967683997E+01
 0.74539904009E+01 0.57140123598E+01 0.43710966721E+01 0.33848201891E+01 0.26982195430E+01
 0.22540639547E+01 0.20065756028E+01 0.19272540232E+01 0.20065315473E+01 0.22539652180E+01
 0.26981077434E+01 0.33847934983E+01 0.43712054332E+01 0.57141638409E+01 0.74540040961E+01
 0.95965518829E+01 0.12092538562E+02 0.14811811645E+02 0.17519029082E+02 0.19876061728E+02
 0.21500960826E+02 0.21651748182E+02 0.20541351165E+02 0.18540521665E+02 0.16001119487E+02
 0.13286753855E+02 0.10685033562E+02 0.83779302873E+01 0.64538405266E+01 0.49327639643E+01
 0.37892288673E+01 0.29719096843E+01 0.24215964364E+01 0.20857701706E+01 0.19272540232E+01
 0.19272807364E+01 0.20858211359E+01 0.24216242894E+01 0.29719072886E+01 0.37892200246E+01
 0.49327545096E+01 0.64538156840E+01 0.83778987459E+01 0.10685032914E+02 0.13286796189E+02
 0.16001160426E+02 0.18540509911E+02 0.20541297712E+02 0.21651717748E+02 0.20945719300E+02
 0.19393001897E+02 0.17136008682E+02 0.14536287631E+02 0.11916310225E+02 0.95032339468E+01
 0.74249515814E+01 0.57315436163E+01 0.44193129719E+01 0.34509026928E+01 0.27730927477E+01
 0.23323270924E+01 0.20857143548E+01 0.20065315473E+01 0.20858211359E+01 0.23325167891E+01
 0.27732651680E+01 0.34509113104E+01 0.44191144239E+01 0.57313025585E+01 0.74249333935E+01
 0.95035532624E+01 0.11916790337E+02 0.14536586535E+02 0.17135910888E+02 0.19392611290E+02
 0.20945377165E+02 0.21501012205E+02 0.19951123622E+02 0.18096486036E+02 0.15736016043E+02
 0.13210470085E+02 0.10779638862E+02 0.86061626766E+01 0.67708121153E+01 0.52960353517E+01
 0.41654718077E+01 0.33401355711E+01 0.27731330206E+01 0.24215485322E+01 0.22539428202E+01
 0.22539652180E+01 0.24216242894E+01 0.27732651680E+01 0.33402863681E+01 0.41655731858E+01
 0.52960497350E+01 0.67707782391E+01 0.86061638809E+01 0.10779721265E+02 0.13210600094E+02
 0.15736122365E+02 0.18096528884E+02 0.19951119588E+02 0.20975256308E+02 0.20975264571E+02
 0.18570104642E+02 0.16680893631E+02 0.14431938686E+02 0.12118798893E+02 0.99527522843E+01
 0.80420166425E+01 0.64375131967E+01 0.51505551000E+01 0.41653810262E+01 0.34508985286E+01
 0.29719610952E+01 0.26981375245E+01 0.26092099755E+01 0.26981077434E+01 0.29719072886E+01
 0.34509113104E+01 0.41655731858E+01 0.51508681802E+01 0.64376959438E+01 0.80418819311E+01
 0.99524039787E+01 0.12118537003E+02 0.14431973752E+02 0.16681191201E+02 0.18570469561E+02
 0.19831688704E+02 0.20275136880E+02 0.19831452626E+02 0.16871071186E+02 0.15282525582E+02
 0.13377497179E+02 0.11384828999E+02 0.95128990672E+01 0.78488710405E+01 0.64376579870E+01
 0.52960798199E+01 0.44192321313E+01 0.37893075841E+01 0.33847883828E+01 0.31876101430E+01
 0.31876330912E+01 0.33847934983E+01 0.37892200246E+01 0.44191144239E+01 0.52960497350E+01
 0.64376959438E+01 0.78488427365E+01 0.95127826786E+01 0.11384791057E+02 0.13377663886E+02
 0.15282775315E+02 0.16871174776E+02 0.17994204241E+02 0.18572441744E+02 0.18572509912E+02
 0.17994281927E+02 0.15239928813E+02 0.14214611793E+02 0.12773753120E+02 0.11124112620E+02
 0.95126950448E+01 0.80419993533E+01 0.67710474775E+01 0.57315873810E+01 0.49329339965E+01
 0.43712597720E+01 0.40385611384E+01 0.39284423219E+01 0.40385666419E+01 0.43712054332E+01
 0.49327545096E+01 0.57313025585E+01 0.67707782391E+01 0.80418819311E+01 0.95127826786E+01
 0.11124361734E+02 0.12774064935E+02 0.14214859539E+02 0.15240000790E+02 0.15823142764E+02
 0.16076833766E+02 0.16141159104E+02 0.16076968856E+02 0.15823248274E+02 0.14224937720E+02
 0.13811106077E+02 0.12774010169E+02 0.11384730299E+02 0.99524331229E+01 0.86062344998E+01
 0.74249522127E+01 0.64538266919E+01 0.57142850503E+01 0.52160982191E+01 0.49651344564E+01
 0.49650281233E+01 0.52158916185E+01 0.57141638409E+01 0.64538156840E+01 0.74249333935E+01
 0.86061638809E+01 0.99524039787E+01 0.11384791057E+02 0.12774064935E+02 0.13811108888E+02
 0.14225069692E+02 0.14032967304E+02 0.13533960055E+02 0.13139860715E+02 0.13139569515E+02
 0.13533350103E+02 0.14032512661E+02 0.14225032786E+02 0.14215120330E+02 0.13377897468E+02
 0.12118611919E+02 0.10779637842E+02 0.95033548511E+01 0.83776866545E+01 0.74539162076E+01
 0.67649453835E+01 0.63373939533E+01 0.61920626796E+01 0.63372754852E+01 0.67648673487E+01
 0.74540040961E+01 0.83778987459E+01 0.95035532624E+01 0.10779721265E+02 0.12118537003E+02
 0.13377663886E+02 0.14214859539E+02 0.14225069692E+02 0.13336592468E+02 0.11918644717E+02
 0.10637488878E+02 0.10124183626E+02 0.10636638853E+02 0.11917578949E+02 0.13335966140E+02
 0.15240201778E+02 0.15283034405E+02 0.14431932582E+02 0.13210310799E+02 0.11916554485E+02
 0.10685003055E+02 0.95965903531E+01 0.87069423534E+01 0.80686242188E+01 0.77327227303E+01
 0.77328246597E+01 0.80688159543E+01 0.87070281286E+01 0.95965518829E+01 0.10685032914E+02
 0.11916790337E+02 0.13210600094E+02 0.14431973752E+02 0.15282775315E+02 0.15240000790E+02
 0.14032967304E+02 0.11918644717E+02 0.96617237643E+01 0.82086017728E+01 0.82081928523E+01
 0.96607797657E+01 0.11917789064E+02 0.14032665200E+02 0.16871413280E+02 0.16680980458E+02
 0.15735696559E+02 0.14536334259E+02 0.13286812360E+02 0.12092635518E+02 0.11023971457E+02
 0.10155838007E+02 0.95792004105E+01 0.93758715738E+01 0.95793068345E+01 0.10155950966E+02
 0.11023976102E+02 0.12092538562E+02 0.13286796189E+02 0.14536586535E+02 0.15736122365E+02
 0.16681191201E+02 0.16871174776E+02 0.15823142764E+02 0.13533960055E+02 0.10637488878E+02
 0.82086017728E+01 0.72603831134E+01 0.82077018928E+01 0.10636557153E+02 0.13533730695E+02
 0.15823478599E+02 0.18570258392E+02 0.18096198653E+02 0.17135935224E+02 0.16001410018E+02
 0.14811819272E+02 0.13635502280E+02 0.12554153381E+02 0.11696992506E+02 0.11215269714E+02
 0.11215156784E+02 0.11696883481E+02 0.12554335333E+02 0.13635789405E+02 0.14811811645E+02
 0.16001160426E+02 0.17135910888E+02 0.18096528884E+02 0.18570469561E+02 0.17994204241E+02
 0.16076833766E+02 0.13139860715E+02 0.10124183626E+02 0.82081928523E+01 0.82077018928E+01
 0.10123272419E+02 0.13139470412E+02 0.16077101333E+02 0.17994452376E+02 0.19950873470E+02
 0.19392631096E+02 0.18540836842E+02 0.17519326521E+02 0.16371684111E+02 0.15150384547E+02
 0.13977229126E+02 0.13094373147E+02 0.12762608386E+02 0.13094374926E+02 0.13977398684E+02
 0.15150655620E+02 0.16371728595E+02 0.17519029082E+02 0.18540509911E+02 0.19392611290E+02
 0.19951119588E+02 0.19831688704E+02 0.18572441744E+02 0.16141159104E+02 0.13139569515E+02
 0.10636638853E+02 0.96607797657E+01 0.10636557153E+02 0.13139470412E+02 0.16141080092E+02
 0.18572316242E+02 0.19831441943E+02 0.20945177109E+02 0.20541088486E+02 0.19876035292E+02
 0.18946616081E+02 0.17687885932E+02 0.16157714372E+02 0.14695401697E+02 0.13787132599E+02
 0.13787267962E+02 0.14695601454E+02 0.16157647220E+02 0.17687553536E+02 0.18946349275E+02
 0.19876061728E+02 0.20541297712E+02 0.20945377165E+02 0.20975256308E+02 0.20275136880E+02
 0.18572509912E+02 0.16076968856E+02 0.13533350103E+02 0.11917578949E+02 0.11917789064E+02
 0.13533730695E+02 0.16077101333E+02 0.18572316242E+02 0.20274861885E+02 0.20975053763E+02
 0.21651330601E+02 0.21500666366E+02 0.20975093093E+02 0.19831527606E+02 0.17994543461E+02
 0.15823564392E+02 0.14032807418E+02 0.13336212012E+02 0.14032789659E+02 0.15823406729E+02
 0.17994251993E+02 0.19831313959E+02 0.20975144427E+02 0.21500960826E+02 0.21651717748E+02
 0.21501012205E+02 0.20975264571E+02 0.19831452626E+02 0.17994281927E+02 0.15823248274E+02
 0.14032512661E+02 0.13335966140E+02 0.14032665200E+02 0.15823478599E+02 0.17994452376E+02
 0.19831441943E+02 0.20975053763E+02 0.21500666366E+02 0.21533427213E+02 0.21271856945E+02
 0.19637399216E+02 0.16623032220E+02 0.12962173404E+02 0.99312588254E+01 0.87527988809E+01
 0.99310631962E+01 0.12962105208E+02 0.16623312590E+02 0.19637881482E+02 0.21272250131E+02
 0.21533635426E+02 0.20945225352E+02 0.20014778573E+02 0.18899977021E+02 0.17642818251E+02
 0.16280499224E+02 0.14943550749E+02 0.13925784606E+02 0.13541393110E+02 0.13925509218E+02
 0.14943298930E+02 0.16280489339E+02 0.17642954849E+02 0.18900046569E+02 0.20014727030E+02
 0.20945112269E+02 0.21271856945E+02 0.20005594463E+02 0.16856225198E+02 0.12344858779E+02
 0.78348918803E+01 0.50028515094E+01 0.50031554190E+01 0.78355677337E+01 0.12345467362E+02
 0.16856585673E+02 0.20005844712E+02 0.21272090658E+02 0.20975164103E+02 0.19875747032E+02
 0.18540451405E+02 0.17135940877E+02 0.15736076651E+02 0.14432160251E+02 0.13377713079E+02
 0.12773796133E+02 0.12773927777E+02 0.13377868168E+02 0.14432012741E+02 0.15735754256E+02
 0.17135848186E+02 0.18540670143E+02 0.19875947282E+02 0.20975097065E+02 0.19637399216E+02
 0.16856225198E+02 0.12086331107E+02 0.65024449698E+01 0.19719872382E+01 0.22677191309E+00