       N       E                     dE             d eps       ncg     rms          rms(c)
DAV:   1    -0.202464091997E+01   -0.20246E+01   -0.21381E+03   928   0.436E+02
DAV:   2    -0.118084909612E+02   -0.97839E+01   -0.92291E+01  1464   0.574E+01
DAV:   3    -0.118963963379E+02   -0.87905E-01   -0.87905E-01  1064   0.695E+00
DAV:   4    -0.118966793572E+02   -0.28302E-03   -0.28302E-03  1488   0.401E-01
DAV:   5    -0.118966794001E+02   -0.42909E-07   -0.41949E-07  1120   0.498E-03    0.355E+00
DAV:   6    -0.116063844829E+02    0.29029E+00   -0.22352E-01   984   0.244E+00    0.199E+00
DAV:   7    -0.114891489019E+02    0.11724E+00   -0.32342E-01  1120   0.298E+00    0.203E-01
DAV:   8    -0.114892528719E+02   -0.10397E-03   -0.76445E-03   976   0.664E-01    0.433E-02
DAV:   9    -0.114891619366E+02    0.90935E-04   -0.32638E-04  1304   0.110E-01
   1 F= -.11489162E+02 E0= -.11489002E+02  d E =-.320310E-03
