diamond Si                              
   6.00000000000000     
     0.000000    0.490819    0.490819
     0.490819    0.000000    0.490819
     0.490819    0.490819    0.000000
   Si
     2
Direct
  0.875000  0.875000  0.875000
  0.125000  0.125000  0.125000
 
   32   32   32
 0.22048986087E+02 0.22124302799E+02 0.22290453764E+02 0.22393826137E+02 0.22214217289E+02
 0.21532497186E+02 0.20469483374E+02 0.19481740085E+02 0.19078978609E+02 0.19481887422E+02
 0.20469436076E+02 0.21532023821E+02 0.22213512158E+02 0.22393324418E+02 0.22290426622E+02
 0.22124690548E+02 0.22049529017E+02 0.22124690548E+02 0.22290426622E+02 0.22393324418E+02
 0.22213512158E+02 0.21532023821E+02 0.20469436076E+02 0.19481887422E+02 0.19078978609E+02
 0.19481740085E+02 0.20469483374E+02 0.21532497186E+02 0.22214217289E+02 0.22393826137E+02
 0.22290453764E+02 0.22124302799E+02 0.22124302799E+02 0.22837923057E+02 0.23483328378E+02
 0.23705108925E+02 0.23068301840E+02 0.21581336372E+02 0.19812299342E+02 0.18613742336E+02
 0.18613733334E+02 0.19812274843E+02 0.21581280986E+02 0.23068128649E+02 0.23704703658E+02
 0.23482796853E+02 0.22837710250E+02 0.22124753854E+02 0.21519626037E+02 0.21078873512E+02
 0.20746945015E+02 0.20407179778E+02 0.19956854376E+02 0.19342165470E+02 0.18681117588E+02
 0.18242157954E+02 0.18242195304E+02 0.18681202448E+02 0.19342371679E+02 0.19957388626E+02
 0.20407945146E+02 0.20747362580E+02 0.21078510267E+02 0.21518830742E+02 0.22290453764E+02
 0.23483328378E+02 0.24226126873E+02 0.23851557053E+02 0.22126636668E+02 0.19560744185E+02
 0.17254995829E+02 0.16329210936E+02 0.17255170814E+02 0.19560878436E+02 0.22126463204E+02
 0.23851011966E+02 0.24225468051E+02 0.23482941072E+02 0.22290523343E+02 0.21078897238E+02
 0.20022271808E+02 0.19167026895E+02 0.18466439246E+02 0.17842531079E+02 0.17251184660E+02
 0.16718754353E+02 0.16326500576E+02 0.16178919189E+02 0.16326483310E+02 0.16718852981E+02
 0.17251454355E+02 0.17842831835E+02 0.18466555770E+02 0.19166846651E+02 0.20021867229E+02
 0.21078510267E+02 0.22393826137E+02 0.23705108925E+02 0.23851557053E+02 0.22281924138E+02
 0.19246357585E+02 0.15861904186E+02 0.13633667919E+02 0.13633960805E+02 0.15862337479E+02
 0.19246222042E+02 0.22281212693E+02 0.23850901718E+02 0.23704858083E+02 0.22393689467E+02
 0.20747100459E+02 0.19166787134E+02 0.17803218453E+02 0.16688074207E+02 0.15783400344E+02
 0.15039784292E+02 0.14438419674E+02 0.14000146987E+02 0.13765541885E+02 0.13765306087E+02
 0.13999847828E+02 0.14438590243E+02 0.15040157379E+02 0.15783288807E+02 0.16687445237E+02
 0.17802743241E+02 0.19166846651E+02 0.20747362580E+02 0.22214217289E+02 0.23068301840E+02
 0.22126636668E+02 0.19246357585E+02 0.15281224170E+02 0.11831706355E+02 0.10464674366E+02
 0.11831703762E+02 0.15281321240E+02 0.19246519227E+02 0.22126623846E+02 0.23067952817E+02
 0.22213701546E+02 0.20407617801E+02 0.18466582967E+02 0.16687673664E+02 0.15184757912E+02
 0.13972589170E+02 0.13017977642E+02 0.12285266786E+02 0.11758424685E+02 0.11438384771E+02
 0.11330864080E+02 0.11438407191E+02 0.11758434011E+02 0.12285254225E+02 0.13017953743E+02
 0.13972511419E+02 0.15184566082E+02 0.16687445237E+02 0.18466555770E+02 0.20407945146E+02
 0.21532497186E+02 0.21581336372E+02 0.19560744185E+02 0.15861904186E+02 0.11831706355E+02
 0.92077840893E+01 0.92075831571E+01 0.11831552720E+02 0.15862362148E+02 0.19561455032E+02
 0.21581467159E+02 0.21531973148E+02 0.19956952433E+02 0.17842907457E+02 0.15783467416E+02
 0.13972342331E+02 0.12481539484E+02 0.11308008309E+02 0.10417962619E+02 0.97776977617E+01
 0.93638909342E+01 0.91614152612E+01 0.91616252411E+01 0.93642113323E+01 0.97776739286E+01
 0.10417690327E+02 0.11307972522E+02 0.12481832264E+02 0.13972511419E+02 0.15783288807E+02
 0.17842831835E+02 0.19957388626E+02 0.20469483374E+02 0.19812299342E+02 0.17254995829E+02
 0.13633667919E+02 0.10464674366E+02 0.92075831571E+01 0.10464538656E+02 0.13633676496E+02
 0.17255284663E+02 0.19812632532E+02 0.20469541035E+02 0.19342129426E+02 0.17251159651E+02
 0.15040016560E+02 0.13017962103E+02 0.11308024060E+02 0.99416447759E+01 0.88982540966E+01
 0.81395211699E+01 0.76286104700E+01 0.73359028523E+01 0.72408922229E+01 0.73359371020E+01
 0.76286470072E+01 0.81395351803E+01 0.88982441507E+01 0.99416114736E+01 0.11307972522E+02
 0.13017953743E+02 0.15040157379E+02 0.17251454355E+02 0.19342371679E+02 0.19481740085E+02
 0.18613742336E+02 0.16329210936E+02 0.13633960805E+02 0.11831703762E+02 0.11831552720E+02
 0.13633676496E+02 0.16329123271E+02 0.18613967035E+02 0.19482007005E+02 0.18681158678E+02
 0.16718515139E+02 0.14438334485E+02 0.12285325522E+02 0.10417922408E+02 0.88983528011E+01
 0.77230605353E+01 0.68561114501E+01 0.62539812942E+01 0.58778057298E+01 0.56979984478E+01
 0.56979785517E+01 0.58777530795E+01 0.62539464435E+01 0.68561522359E+01 0.77231060424E+01
 0.88982441507E+01 0.10417690327E+02 0.12285254225E+02 0.14438590243E+02 0.16718852981E+02
 0.18681202448E+02 0.19078978609E+02 0.18613733334E+02 0.17255170814E+02 0.15862337479E+02
 0.15281321240E+02 0.15862362148E+02 0.17255284663E+02 0.18613967035E+02 0.19079259981E+02
 0.18242398983E+02 0.16326541090E+02 0.13999794915E+02 0.11758355282E+02 0.97776251477E+01
 0.81395183286E+01 0.68561438126E+01 0.58971208648E+01 0.52157561001E+01 0.47663656783E+01
 0.45125102300E+01 0.44306395258E+01 0.45125328318E+01 0.47663991171E+01 0.52157858939E+01
 0.58971386225E+01 0.68561522359E+01 0.81395351803E+01 0.97776739286E+01 0.11758434011E+02
 0.13999847828E+02 0.16326483310E+02 0.18242195304E+02 0.19481887422E+02 0.19812274843E+02
 0.19560878436E+02 0.19246222042E+02 0.19246519227E+02 0.19561455032E+02 0.19812632532E+02
 0.19482007005E+02 0.18242398983E+02 0.16179364151E+02 0.13765583127E+02 0.11438248958E+02
 0.93638626824E+01 0.76285067261E+01 0.62540244323E+01 0.52157897618E+01 0.44662330863E+01
 0.39544706222E+01 0.36378797233E+01 0.34869648166E+01 0.34868953153E+01 0.36378130891E+01
 0.39545771879E+01 0.44663925706E+01 0.52157858939E+01 0.62539464435E+01 0.76286470072E+01
 0.93642113323E+01 0.11438407191E+02 0.13765306087E+02 0.16178919189E+02 0.18242157954E+02
 0.20469436076E+02 0.21581280986E+02 0.22126463204E+02 0.22281212693E+02 0.22126623846E+02
 0.21581467159E+02 0.20469541035E+02 0.18681158678E+02 0.16326541090E+02 0.13765583127E+02
 0.11330867438E+02 0.91615882119E+01 0.73358996457E+01 0.58777445737E+01 0.47664156478E+01
 0.39546050285E+01 0.33875568684E+01 0.30170879665E+01 0.28083153235E+01 0.27409163647E+01
 0.28082959478E+01 0.30170573278E+01 0.33875247596E+01 0.39545771879E+01 0.47663991171E+01
 0.58777530795E+01 0.73359371020E+01 0.91616252411E+01 0.11330864080E+02 0.13765541885E+02
 0.16326500576E+02 0.18681117588E+02 0.21532023821E+02 0.23068128649E+02 0.23851011966E+02
 0.23850901718E+02 0.23067952817E+02 0.21531973148E+02 0.19342129426E+02 0.16718515139E+02
 0.13999794915E+02 0.11438248958E+02 0.91615882119E+01 0.72411031002E+01 0.56979978449E+01
 0.45124729126E+01 0.36378964752E+01 0.30172577035E+01 0.25975093382E+01 0.23383472739E+01
 0.22146216171E+01 0.22146829608E+01 0.23384110675E+01 0.25974080848E+01 0.30170573278E+01
 0.36378130891E+01 0.45125328318E+01 0.56979785517E+01 0.72408922229E+01 0.91614152612E+01
 0.11438384771E+02 0.14000146987E+02 0.16718754353E+02 0.19342165470E+02 0.22213512158E+02
 0.23704703658E+02 0.24225468051E+02 0.23704858083E+02 0.22213701546E+02 0.19956952433E+02
 0.17251159651E+02 0.14438334485E+02 0.11758355282E+02 0.93638626824E+01 0.73358996457E+01
 0.56979978449E+01 0.44306335636E+01 0.34868866546E+01 0.28082910508E+01 0.23384162102E+01
 0.20320464366E+01 0.18589256391E+01 0.18028554453E+01 0.18589122577E+01 0.20320317394E+01
 0.23384110675E+01 0.28082959478E+01 0.34868953153E+01 0.44306395258E+01 0.56979984478E+01
 0.73359028523E+01 0.93638909342E+01 0.11758424685E+02 0.14438419674E+02 0.17251184660E+02
 0.19956854376E+02 0.22393324418E+02 0.23482796853E+02 0.23482941072E+02 0.22393689467E+02
 0.20407617801E+02 0.17842907457E+02 0.15040016560E+02 0.12285325522E+02 0.97776251477E+01
 0.76285067261E+01 0.58777445737E+01 0.45124729126E+01 0.34868866546E+01 0.27407904291E+01
 0.22145769944E+01 0.18588845789E+01 0.16387402266E+01 0.15332969488E+01 0.15332743899E+01
 0.16387087910E+01 0.18589122577E+01 0.22146829608E+01 0.27409163647E+01 0.34869648166E+01
 0.45125102300E+01 0.58778057298E+01 0.76286104700E+01 0.97776977617E+01 0.12285266786E+02
 0.15039784292E+02 0.17842531079E+02 0.20407179778E+02 0.22290426622E+02 0.22837710250E+02
 0.22290523343E+02 0.20747100459E+02 0.18466582967E+02 0.15783467416E+02 0.13017962103E+02
 0.10417922408E+02 0.81395183286E+01 0.62540244323E+01 0.47664156478E+01 0.36378964752E+01
 0.28082910508E+01 0.22145769944E+01 0.18028165014E+01 0.15332538566E+01 0.13804426689E+01
 0.13308850085E+01 0.13804485664E+01 0.15332743899E+01 0.18028554453E+01 0.22146216171E+01
 0.28083153235E+01 0.36378797233E+01 0.47663656783E+01 0.62539812942E+01 0.81395211699E+01
 0.10417962619E+02 0.13017977642E+02 0.15783400344E+02 0.18466439246E+02 0.20746945015E+02
 0.22124690548E+02 0.22124753854E+02 0.21078897238E+02 0.19166787134E+02 0.16687673664E+02
 0.13972342331E+02 0.11308024060E+02 0.88983528011E+01 0.68561438126E+01 0.52157897618E+01
 0.39546050285E+01 0.30172577035E+01 0.23384162102E+01 0.18588845789E+01 0.15332538566E+01
 0.13308977553E+01 0.12337771642E+01 0.12337582159E+01 0.13308850085E+01 0.15332969488E+01
 0.18589256391E+01 0.23383472739E+01 0.30170879665E+01 0.39544706222E+01 0.52157561001E+01
 0.68561114501E+01 0.88982540966E+01 0.11308008309E+02 0.13972589170E+02 0.16688074207E+02
 0.19167026895E+02 0.21078873512E+02 0.22049529017E+02 0.21519626037E+02 0.20022271808E+02
 0.17803218453E+02 0.15184757912E+02 0.12481539484E+02 0.99416447759E+01 0.77230605353E+01
 0.58971208648E+01 0.44662330863E+01 0.33875568684E+01 0.25975093382E+01 0.20320464366E+01
 0.16387402266E+01 0.13804426689E+01 0.12337771642E+01 0.11861969619E+01 0.12337771642E+01
 0.13804426689E+01 0.16387402266E+01 0.20320464366E+01 0.25975093382E+01 0.33875568684E+01
 0.44662330863E+01 0.58971208648E+01 0.77230605353E+01 0.99416447759E+01 0.12481539484E+02
 0.15184757912E+02 0.17803218453E+02 0.20022271808E+02 0.21519626037E+02 0.22124690548E+02
 0.21078873512E+02 0.19167026895E+02 0.16688074207E+02 0.13972589170E+02 0.11308008309E+02
 0.88982540966E+01 0.68561114501E+01 0.52157561001E+01 0.39544706222E+01 0.30170879665E+01
 0.23383472739E+01 0.18589256391E+01 0.15332969488E+01 0.13308850085E+01 0.12337582159E+01
 0.12337771642E+01 0.13308977553E+01 0.15332538566E+01 0.18588845789E+01 0.23384162102E+01
 0.30172577035E+01 0.39546050285E+01 0.52157897618E+01 0.68561438126E+01 0.88983528011E+01
 0.11308024060E+02 0.13972342331E+02 0.16687673664E+02 0.19166787134E+02 0.21078897238E+02
 0.22124753854E+02 0.22290426622E+02 0.20746945015E+02 0.18466439246E+02 0.15783400344E+02
 0.13017977642E+02 0.10417962619E+02 0.81395211699E+01 0.62539812942E+01 0.47663656783E+01
 0.36378797233E+01 0.28083153235E+01 0.22146216171E+01 0.18028554453E+01 0.15332743899E+01
 0.13804485664E+01 0.13308850085E+01 0.13804426689E+01 0.15332538566E+01 0.18028165014E+01
 0.22145769944E+01 0.28082910508E+01 0.36378964752E+01 0.47664156478E+01 0.62540244323E+01
 0.81395183286E+01 0.10417922408E+02 0.13017962103E+02 0.15783467416E+02 0.18466582967E+02
 0.20747100459E+02 0.22290523343E+02 0.22837710250E+02 0.22393324418E+02 0.20407179778E+02
 0.17842531079E+02 0.15039784292E+02 0.12285266786E+02 0.97776977617E+01 0.76286104700E+01
 0.58778057298E+01 0.45125102300E+01 0.34869648166E+01 0.27409163647E+01 0.22146829608E+01
 0.18589122577E+01 0.16387087910E+01 0.15332743899E+01 0.15332969488E+01 0.16387402266E+01
 0.18588845789E+01 0.22145769944E+01 0.27407904291E+01 0.34868866546E+01 0.45124729126E+01
 0.58777445737E+01 0.76285067261E+01 0.97776251477E+01 0.12285325522E+02 0.15040016560E+02
 0.17842907457E+02 0.20407617801E+02 0.22393689467E+02 0.23482941072E+02 0.23482796853E+02
 0.22213512158E+02 0.19956854376E+02 0.17251184660E+02 0.14438419674E+02 0.11758424685E+02
 0.93638909342E+01 0.73359028523E+01 0.56979984478E+01 0.44306395258E+01 0.34868953153E+01
 0.28082959478E+01 0.23384110675E+01 0.20320317394E+01 0.18589122577E+01 0.18028554453E+01
 0.18589256391E+01 0.20320464366E+01 0.23384162102E+01 0.28082910508E+01 0.34868866546E+01
 0.44306335636E+01 0.56979978449E+01 0.73358996457E+01 0.93638626824E+01 0.11758355282E+02
 0.14438334485E+02 0.17251159651E+02 0.19956952433E+02 0.22213701546E+02 0.23704858083E+02
 0.24225468051E+02 0.23704703658E+02 0.21532023821E+02 0.19342165470E+02 0.16718754353E+02
 0.14000146987E+02 0.11438384771E+02 0.91614152612E+01 0.72408922229E+01 0.56979785517E+01
 0.45125328318E+01 0.36378130891E+01 0.30170573278E+01 0.25974080848E+01 0.23384110675E+01
 0.22146829608E+01 0.22146216171E+01 0.23383472739E+01 0.25975093382E+01 0.30172577035E+01
 0.36378964752E+01 0.45124729126E+01 0.56979978449E+01 0.72411031002E+01 0.91615882119E+01
 0.11438248958E+02 0.13999794915E+02 0.16718515139E+02 0.19342129426E+02 0.21531973148E+02
 0.23067952817E+02 0.23850901718E+02 0.23851011966E+02 0.23068128649E+02 0.20469436076E+02
 0.18681117588E+02 0.16326500576E+02 0.13765541885E+02 0.11330864080E+02 0.91616252411E+01
 0.73359371020E+01 0.58777530795E+01 0.47663991171E+01 0.39545771879E+01 0.33875247596E+01
 0.30170573278E+01 0.28082959478E+01 0.27409163647E+01 0.28083153235E+01 0.30170879665E+01
 0.33875568684E+01 0.39546050285E+01 0.47664156478E+01 0.58777445737E+01 0.73358996457E+01
 0.91615882119E+01 0.11330867438E+02 0.13765583127E+02 0.16326541090E+02 0.18681158678E+02
 0.20469541035E+02 0.21581467159E+02 0.22126623846E+02 0.22281212693E+02 0.22126463204E+02
 0.21581280986E+02 0.19481887422E+02 0.18242157954E+02 0.16178919189E+02 0.13765306087E+02
 0.11438407191E+02 0.93642113323E+01 0.76286470072E+01 0.62539464435E+01 0.52157858939E+01
 0.44663925706E+01 0.39545771879E+01 0.36378130891E+01 0.34868953153E+01 0.34869648166E+01
 0.36378797233E+01 0.39544706222E+01 0.44662330863E+01 0.52157897618E+01 0.62540244323E+01
 0.76285067261E+01 0.93638626824E+01 0.11438248958E+02 0.13765583127E+02 0.16179364151E+02
 0.18242398983E+02 0.19482007005E+02 0.19812632532E+02 0.19561455032E+02 0.19246519227E+02
 0.19246222042E+02 0.19560878436E+02 0.19812274843E+02 0.19078978609E+02 0.18242195304E+02
 0.16326483310E+02 0.13999847828E+02 0.11758434011E+02 0.97776739286E+01 0.81395351803E+01
 0.68561522359E+01 0.58971386225E+01 0.52157858939E+01 0.47663991171E+01 0.45125328318E+01
 0.44306395258E+01 0.45125102300E+01 0.47663656783E+01 0.52157561001E+01 0.58971208648E+01
 0.68561438126E+01 0.81395183286E+01 0.97776251477E+01 0.11758355282E+02 0.13999794915E+02
 0.16326541090E+02 0.18242398983E+02 0.19079259981E+02 0.18613967035E+02 0.17255284663E+02
 0.15862362148E+02 0.15281321240E+02 0.15862337479E+02 0.17255170814E+02 0.18613733334E+02
 0.19481740085E+02 0.18681202448E+02 0.16718852981E+02 0.14438590243E+02 0.12285254225E+02
 0.10417690327E+02 0.88982441507E+01 0.77231060424E+01 0.68561522359E+01 0.62539464435E+01
 0.58777530795E+01 0.56979785517E+01 0.56979984478E+01 0.58778057298E+01 0.62539812942E+01
 0.68561114501E+01 0.77230605353E+01 0.88983528011E+01 0.10417922408E+02 0.12285325522E+02
 0.14438334485E+02 0.16718515139E+02 0.18681158678E+02 0.19482007005E+02 0.18613967035E+02
 0.16329123271E+02 0.13633676496E+02 0.11831552720E+02 0.11831703762E+02 0.13633960805E+02
 0.16329210936E+02 0.18613742336E+02 0.20469483374E+02 0.19342371679E+02 0.17251454355E+02
 0.15040157379E+02 0.13017953743E+02 0.11307972522E+02 0.99416114736E+01 0.88982441507E+01
 0.81395351803E+01 0.76286470072E+01 0.73359371020E+01 0.72408922229E+01 0.73359028523E+01
 0.76286104700E+01 0.81395211699E+01 0.88982540966E+01 0.99416447759E+01 0.11308024060E+02
 0.13017962103E+02 0.15040016560E+02 0.17251159651E+02 0.19342129426E+02 0.20469541035E+02
 0.19812632532E+02 0.17255284663E+02 0.13633676496E+02 0.10464538656E+02 0.92075831571E+01
 0.10464674366E+02 0.13633667919E+02 0.17254995829E+02 0.19812299342E+02 0.21532497186E+02
 0.19957388626E+02 0.17842831835E+02 0.15783288807E+02 0.13972511419E+02 0.12481832264E+02
 0.11307972522E+02 0.10417690327E+02 0.97776739286E+01 0.93642113323E+01 0.91616252411E+01
 0.91614152612E+01 0.93638909342E+01 0.97776977617E+01 0.10417962619E+02 0.11308008309E+02
 0.12481539484E+02 0.13972342331E+02 0.15783467416E+02 0.17842907457E+02 0.19956952433E+02
 0.21531973148E+02 0.21581467159E+02 0.19561455032E+02 0.15862362148E+02 0.11831552720E+02
 0.92075831571E+01 0.92077840893E+01 0.11831706355E+02 0.15861904186E+02 0.19560744185E+02
 0.21581336372E+02 0.22214217289E+02 0.20407945146E+02 0.18466555770E+02 0.16687445237E+02
 0.15184566082E+02 0.13972511419E+02 0.13017953743E+02 0.12285254225E+02 0.11758434011E+02
 0.11438407191E+02 0.11330864080E+02 0.11438384771E+02 0.11758424685E+02 0.12285266786E+02
 0.13017977642E+02 0.13972589170E+02 0.15184757912E+02 0.16687673664E+02 0.18466582967E+02
 0.20407617801E+02 0.22213701546E+02 0.23067952817E+02 0.22126623846E+02 0.19246519227E+02
 0.15281321240E+02 0.11831703762E+02 0.10464674366E+02 0.11831706355E+02 0.15281224170E+02
 0.19246357585E+02 0.22126636668E+02 0.23068301840E+02 0.22393826137E+02 0.20747362580E+02
 0.19166846651E+02 0.17802743241E+02 0.16687445237E+02 0.15783288807E+02 0.15040157379E+02
 0.14438590243E+02 0.13999847828E+02 0.13765306087E+02 0.13765541885E+02 0.14000146987E+02
 0.14438419674E+02 0.15039784292E+02 0.15783400344E+02 0.16688074207E+02 0.17803218453E+02
 0.19166787134E+02 0.20747100459E+02 0.22393689467E+02 0.23704858083E+02 0.23850901718E+02
 0.22281212693E+02 0.19246222042E+02 0.15862337479E+02 0.13633960805E+02 0.13633667919E+02
 0.15861904186E+02 0.19246357585E+02 0.22281924138E+02 0.23851557053E+02 0.23705108925E+02
 0.22290453764E+02 0.21078510267E+02 0.20021867229E+02 0.19166846651E+02 0.18466555770E+02
 0.17842831835E+02 0.17251454355E+02 0.16718852981E+02 0.16326483310E+02 0.16178919189E+02
 0.16326500576E+02 0.16718754353E+02 0.17251184660E+02 0.17842531079E+02 0.18466439246E+02
 0.19167026895E+02 0.20022271808E+02 0.21078897238E+02 0.22290523343E+02 0.23482941072E+02
 0.24225468051E+02 0.23851011966E+02 0.22126463204E+02 0.19560878436E+02 0.17255170814E+02
 0.16329210936E+02 0.17254995829E+02 0.19560744185E+02 0.22126636668E+02 0.23851557053E+02
 0.24226126873E+02 0.23483328378E+02 0.22124302799E+02 0.21518830742E+02 0.21078510267E+02
 0.20747362580E+02 0.20407945146E+02 0.19957388626E+02 0.19342371679E+02 0.18681202448E+02
 0.18242195304E+02 0.18242157954E+02 0.18681117588E+02 0.19342165470E+02 0.19956854376E+02
 0.20407179778E+02 0.20746945015E+02 0.21078873512E+02 0.21519626037E+02 0.22124753854E+02
 0.22837710250E+02 0.23482796853E+02 0.23704703658E+02 0.23068128649E+02 0.21581280986E+02
 0.19812274843E+02 0.18613733334E+02 0.18613742336E+02 0.19812299342E+02 0.21581336372E+02
 0.23068301840E+02 0.23705108925E+02 0.23483328378E+02 0.22837923057E+02 0.22124775993E+02
 0.22837296420E+02 0.23482051071E+02 0.23703967579E+02 0.23067844758E+02 0.21581600661E+02
 0.19812869696E+02 0.18614103105E+02 0.18613737149E+02 0.19812230798E+02 0.21581473369E+02
 0.23068411331E+02 0.23704773901E+02 0.23482682494E+02 0.22837672092E+02 0.22124830449E+02
 0.21519634792E+02 0.21078807781E+02 0.20746997954E+02 0.20407357392E+02 0.19956915174E+02
 0.19342020165E+02 0.18680985510E+02 0.18242209593E+02 0.18242269159E+02 0.18680998938E+02
 0.19341796647E+02 0.19956674717E+02 0.20407562954E+02 0.20747752911E+02 0.21079658784E+02
 0.21520074669E+02 0.22837296420E+02 0.24058821181E+02 0.24778213907E+02 0.24294238172E+02
 0.22379847199E+02 0.19590139793E+02 0.17101188333E+02 0.16104249557E+02 0.17100791346E+02
 0.19589639911E+02 0.22379738293E+02 0.24294830178E+02 0.24779267462E+02 0.24059748875E+02
 0.22837729841E+02 0.21592163456E+02 0.20506525200E+02 0.19628641609E+02 0.18908519482E+02
 0.18263484054E+02 0.17647409883E+02 0.17088096678E+02 0.16671859334E+02 0.16514655311E+02
 0.16671774100E+02 0.17087996932E+02 0.17647502693E+02 0.18263947196E+02 0.18909242292E+02
 0.19629307465E+02 0.20506919941E+02 0.21592203874E+02 0.23482051071E+02 0.24778213907E+02
 0.24708128204E+02 0.22702576131E+02 0.19085533541E+02 0.15137486396E+02 0.12559790985E+02
 0.12559864999E+02 0.15137397227E+02 0.19084951591E+02 0.22701961104E+02 0.24708323693E+02
 0.24779288454E+02 0.23483100219E+02 0.21752972818E+02 0.20087826297E+02 0.18652318793E+02
 0.17479005747E+02 0.16524162877E+02 0.15732971084E+02 0.15086539658E+02 0.14611314100E+02
 0.14355585415E+02 0.14355327203E+02 0.14610947772E+02 0.15086663143E+02 0.15733497786E+02
 0.16524568367E+02 0.17479189066E+02 0.18652603855E+02 0.20088142356E+02 0.21752710395E+02
 0.23703967579E+02 0.24294238172E+02 0.22702576131E+02 0.18842430007E+02 0.13789102572E+02
 0.94771873961E+01 0.77810751840E+01 0.94773543239E+01 0.13788864286E+02 0.18841537812E+02
 0.22701662395E+02 0.24294172211E+02 0.23704776239E+02 0.21856419412E+02 0.19774221963E+02
 0.17860557885E+02 0.16244463344E+02 0.14940370738E+02 0.13908704752E+02 0.13109870821E+02
 0.12529578155E+02 0.12173987923E+02 0.12053786676E+02 0.12173730481E+02 0.12529493376E+02
 0.13110084172E+02 0.13908883030E+02 0.14940376714E+02 0.16244559238E+02 0.17860755604E+02
 0.19774021868E+02 0.21855591240E+02 0.23067844758E+02 0.22379847199E+02 0.19085533541E+02
 0.13789102572E+02 0.82593198780E+01 0.47212459621E+01 0.47213237263E+01 0.82593584130E+01
 0.13788764052E+02 0.19084800907E+02 0.22379160403E+02 0.23067716244E+02 0.21704327642E+02
 0.19460289353E+02 0.17216262976E+02 0.15235046849E+02 0.13602898628E+02 0.12315744017E+02
 0.11334334149E+02 0.10622506112E+02 0.10158534317E+02 0.99300525312E+01 0.99301289389E+01
 0.10158655830E+02 0.10622518354E+02 0.11334289336E+02 0.12315840550E+02 0.13603152448E+02
 0.15235156530E+02 0.17215921941E+02 0.19459607005E+02 0.21703825736E+02 0.21581600661E+02
 0.19590139793E+02 0.15137486396E+02 0.94771873961E+01 0.47212459621E+01 0.28636122942E+01
 0.47215419760E+01 0.94773437958E+01 0.15137158082E+02 0.19589499385E+02 0.21581164404E+02
 0.21092710348E+02 0.19056258384E+02 0.16652050371E+02 0.14422223180E+02 0.12526426963E+02
 0.11007840052E+02 0.98446944231E+01 0.89944457156E+01 0.84181262021E+01 0.80860215786E+01
 0.79778718447E+01 0.80860798651E+01 0.84182151592E+01 0.89945408080E+01 0.98448065397E+01
 0.11007983879E+02 0.12526529118E+02 0.14422117002E+02 0.16651665915E+02 0.19055821526E+02
 0.21092626097E+02 0.19812869696E+02 0.17101188333E+02 0.12559790985E+02 0.77810751840E+01
 0.47213237263E+01 0.47215419760E+01 0.77813975759E+01 0.12559662412E+02 0.17100561579E+02
 0.19812255458E+02 0.20122787759E+02 0.18527921220E+02 0.16128872705E+02 0.13764451833E+02
 0.11685119221E+02 0.99818854495E+01 0.86595853794E+01 0.76806880418E+01 0.69979287109E+01
 0.65696300576E+01 0.63642946776E+01 0.63642456917E+01 0.65695815631E+01 0.69980029022E+01
 0.76808117335E+01 0.86596045230E+01 0.99818041233E+01 0.11685042923E+02 0.13764356106E+02
 0.16128661874E+02 0.18527728296E+02 0.20122955957E+02 0.18614103105E+02 0.16104249557E+02
 0.12559864999E+02 0.94773543239E+01 0.82593584130E+01 0.94773437958E+01 0.12559662412E+02
 0.16103815182E+02 0.18613649075E+02 0.19214525248E+02 0.17965071738E+02 0.15667064804E+02
 0.13243122542E+02 0.11048445259E+02 0.92093676773E+01 0.77584220567E+01 0.66697537894E+01
 0.58939276220E+01 0.53810211330E+01 0.50909078549E+01 0.49973016247E+01 0.50908937107E+01
 0.53809863011E+01 0.58938999111E+01 0.66697535450E+01 0.77583955707E+01 0.92092513629E+01
 0.11048274062E+02 0.13242988564E+02 0.15667015275E+02 0.17965142406E+02 0.19214792579E+02
 0.18613737149E+02 0.17100791346E+02 0.15137397227E+02 0.13788864286E+02 0.13788764052E+02
 0.15137158082E+02 0.17100561579E+02 0.18613649075E+02 0.18843010340E+02 0.17591394652E+02
 0.15336396308E+02 0.12869847566E+02 0.10598098173E+02 0.86599021817E+01 0.71071371569E+01
 0.59270180484E+01 0.50724749791E+01 0.44883151205E+01 0.41269190291E+01 0.39547960826E+01
 0.39547778695E+01 0.41268918648E+01 0.44883265446E+01 0.50725282993E+01 0.59270580045E+01
 0.71071178253E+01 0.86598502603E+01 0.10598072605E+02 0.12869844414E+02 0.15336350585E+02
 0.17591292802E+02 0.18842948268E+02 0.19812230798E+02 0.19589639911E+02 0.19084951591E+02
 0.18841537812E+02 0.19084800907E+02 0.19589499385E+02 0.19812255458E+02 0.19214525248E+02
 0.17591394652E+02 0.15214180681E+02 0.12672783723E+02 0.10328349443E+02 0.83088431068E+01
 0.66716969112E+01 0.54132372689E+01 0.44903503568E+01 0.38452742187E+01 0.34243700199E+01
 0.31876501170E+01 0.31113503350E+01 0.31876686304E+01 0.34244061463E+01 0.38453090086E+01
 0.44903699221E+01 0.54132719183E+01 0.66717914767E+01 0.83089786216E+01 0.10328431987E+02
 0.12672725124E+02 0.15213973500E+02 0.17591122393E+02 0.19214321734E+02 0.21581473369E+02
 0.22379738293E+02 0.22701961104E+02 0.22701662395E+02 0.22379160403E+02 0.21581164404E+02
 0.20122787759E+02 0.17965071738E+02 0.15336396308E+02 0.12672783723E+02 0.10238597960E+02
 0.81387080768E+01 0.64238839659E+01 0.50930988114E+01 0.41066822723E+01 0.34062067751E+01
 0.29334242134E+01 0.26424743578E+01 0.25039873853E+01 0.25040613439E+01 0.26425601946E+01
 0.29333463422E+01 0.34060535563E+01 0.41066687449E+01 0.50932153655E+01 0.64239217919E+01
 0.81386153060E+01 0.10238560024E+02 0.12672884675E+02 0.15336445108E+02 0.17964935956E+02
 0.20122707865E+02 0.23068411331E+02 0.24294830178E+02 0.24708323693E+02 0.24294172211E+02
 0.23067716244E+02 0.21092710348E+02 0.18527921220E+02 0.15667064804E+02 0.12869847566E+02
 0.10328349443E+02 0.81387080768E+01 0.63439148835E+01 0.49405063908E+01 0.38898012702E+01
 0.31337917312E+01 0.26116860253E+01 0.22726085671E+01 0.20817040815E+01 0.20200294052E+01
 0.20817215163E+01 0.22725614265E+01 0.26115739493E+01 0.31337221139E+01 0.38898007806E+01
 0.49404427270E+01 0.63437185949E+01 0.81385606983E+01 0.10328464523E+02 0.12870127848E+02
 0.15667216397E+02 0.18527946374E+02 0.21092985919E+02 0.23704773901E+02 0.24779267462E+02
 0.24779288454E+02 0.23704776239E+02 0.21704327642E+02 0.19056258384E+02 0.16128872705E+02
 0.13243122542E+02 0.10598098173E+02 0.83088431068E+01 0.64238839659E+01 0.49405063908E+01
 0.38199123590E+01 0.30036757981E+01 0.24294806506E+01 0.20431265978E+01 0.18050289815E+01
 0.16912738355E+01 0.16912308294E+01 0.18049700601E+01 0.20431472516E+01 0.24295440334E+01
 0.30036706535E+01 0.38198313052E+01 0.49404584258E+01 0.64239230294E+01 0.83088937562E+01
 0.10598089747E+02 0.13243112728E+02 0.16128955881E+02 0.19056407067E+02 0.21704423130E+02
 0.23482682494E+02 0.24059748875E+02 0.23483100219E+02 0.21856419412E+02 0.19460289353E+02
 0.16652050371E+02 0.13764451833E+02 0.11048445259E+02 0.86599021817E+01 0.66716969112E+01
 0.50930988114E+01 0.38898012702E+01 0.30036757981E+01 0.23705335738E+01 0.19331260954E+01
 0.16479899502E+01 0.14868501581E+01 0.14346573547E+01 0.14868367323E+01 0.16480119908E+01
 0.19331965053E+01 0.23706009851E+01 0.30037099490E+01 0.38898517564E+01 0.50932056363E+01
 0.66717838184E+01 0.86598611943E+01 0.11048314223E+02 0.13764371971E+02 0.16652012703E+02
 0.19460083573E+02 0.21855963381E+02 0.22837672092E+02 0.22837729841E+02 0.21752972818E+02
 0.19774221963E+02 0.17216262976E+02 0.14422223180E+02 0.11685119221E+02 0.92093676773E+01
 0.71071371569E+01 0.54132372689E+01 0.41066822723E+01 0.31337917312E+01 0.24294806506E+01
 0.19331260954E+01 0.15970661368E+01 0.13886975588E+01 0.12888154362E+01 0.12888129076E+01
 0.13887022007E+01 0.15970941538E+01 0.19331686701E+01 0.24295101302E+01 0.31337897348E+01
 0.41066491969E+01 0.54131846205E+01 0.71070863366E+01 0.92093506406E+01 0.11685151505E+02
 0.14422269817E+02 0.17216256332E+02 0.19774130506E+02 0.21752849072E+02 0.22124830449E+02
 0.21592163456E+02 0.20087826297E+02 0.17860557885E+02 0.15235046849E+02 0.12526426963E+02
 0.99818854495E+01 0.77584220567E+01 0.59270180484E+01 0.44903503568E+01 0.34062067751E+01
 0.26116860253E+01 0.20431265978E+01 0.16479899502E+01 0.13886975588E+01 0.12414999806E+01
 0.11937290758E+01 0.12414833458E+01 0.13887078178E+01 0.16480284695E+01 0.20431237420E+01
 0.26115930668E+01 0.34060760827E+01 0.44902652778E+01 0.59269728122E+01 0.77583592457E+01
 0.99818502822E+01 0.12526565885E+02 0.15235392513E+02 0.17860923956E+02 0.20088012667E+02
 0.21592187098E+02 0.21519634792E+02 0.20506525200E+02 0.18652318793E+02 0.16244463344E+02
 0.13602898628E+02 0.11007840052E+02 0.86595853794E+01 0.66697537894E+01 0.50724749791E+01
 0.38452742187E+01 0.29334242134E+01 0.22726085671E+01 0.18050289815E+01 0.14868501581E+01
 0.12888154362E+01 0.11937290758E+01 0.11937421806E+01 0.12888295438E+01 0.14868335498E+01
 0.18050009077E+01 0.22726123435E+01 0.29334590493E+01 0.38452981836E+01 0.50724728916E+01
 0.66697590893E+01 0.86596215625E+01 0.11007882115E+02 0.13602919654E+02 0.16244487001E+02
 0.18652386588E+02 0.20506620020E+02 0.21519681083E+02 0.21078807781E+02 0.19628641609E+02
 0.17479005747E+02 0.14940370738E+02 0.12315744017E+02 0.98446944231E+01 0.76806880418E+01
 0.58939276220E+01 0.44883151205E+01 0.34243700199E+01 0.26424743578E+01 0.20817040815E+01
 0.16912738355E+01 0.14346573547E+01 0.12888129076E+01 0.12414833458E+01 0.12888295438E+01
 0.14346180417E+01 0.16911922398E+01 0.20817120283E+01 0.26426283841E+01 0.34245312389E+01
 0.44883459748E+01 0.58939262639E+01 0.76808347001E+01 0.98448895153E+01 0.12315656662E+02
 0.14939941536E+02 0.17478636190E+02 0.19628677603E+02 0.21079045657E+02 0.21592145740E+02
 0.20746997954E+02 0.18908519482E+02 0.16524162877E+02 0.13908704752E+02 0.11334334149E+02
 0.89944457156E+01 0.69979287109E+01 0.53810211330E+01 0.41269190291E+01 0.31876501170E+01
 0.25039873853E+01 0.20200294052E+01 0.16912308294E+01 0.14868367323E+01 0.13887022007E+01
 0.13887078178E+01 0.14868335498E+01 0.16911922398E+01 0.20199696507E+01 0.25039488852E+01
 0.31876509958E+01 0.41269378544E+01 0.53810331765E+01 0.69979339400E+01 0.89944566597E+01
 0.11334357420E+02 0.13908746191E+02 0.16524234416E+02 0.18908620595E+02 0.20747094882E+02