       N       E                     dE             d eps       ncg     rms          rms(c)
DAV:   1    -0.188919155446E+01   -0.18892E+01   -0.20050E+03   904   0.419E+02
DAV:   2    -0.112782130015E+02   -0.93890E+01   -0.89321E+01  1520   0.530E+01
DAV:   3    -0.113926475082E+02   -0.11443E+00   -0.11443E+00  1136   0.726E+00
DAV:   4    -0.113930720327E+02   -0.42452E-03   -0.42452E-03  1416   0.461E-01
DAV:   5    -0.113930731497E+02   -0.11170E-05   -0.11175E-05  1176   0.150E-02    0.244E+00
DAV:   6    -0.113057827124E+02    0.87290E-01   -0.40026E-02  1064   0.974E-01    0.146E+00
DAV:   7    -0.112567300539E+02    0.49053E-01   -0.90561E-02  1072   0.151E+00    0.102E-01
DAV:   8    -0.112570364852E+02   -0.30643E-03   -0.24579E-03   936   0.348E-01    0.235E-02
DAV:   9    -0.112570240059E+02    0.12479E-04   -0.81664E-05   792   0.588E-02
   1 F= -.11257024E+02 E0= -.11257024E+02  d E =-.463291E-07
