LAMMPS (17 Nov 2016)
Lattice spacing in x,y,z = 4 4 4
Created triclinic box = (0 0 0) to (8 12 16) with tilt (0 0 0)
  2 by 2 by 7 MPI processor grid
Created 96 atoms
Reading potential file AlCu.eam.alloy with DATE: 2008-10-01
Neighbor list info ...
  1 neighbor list requests
  update every 1 steps, delay 0 steps, check yes
  max neighbors/atom: 2000, page size: 100000
  master list distance cutoff = 7.6825
  ghost atom cutoff = 7.6825
Setting up cg style minimization ...
  Unit style    : metal
Memory usage per processor = 3.70903 Mbytes
Step Temp PotEng Press Pxx Pyy Pzz Pxy Pxz Pyz Lx Ly Lz Volume 
       0            0   -318.00863    31455.725    31455.725    31455.725    31455.725 4.0531942e-13 -8.6854162e-13 -1.3896666e-12            8           12           16         1536 
       1            0   -318.01764    31187.457    31187.457    31187.457    31187.457 -1.7365622e-12 1.2329592e-11 1.4992321e-11       8.0008      12.0012      16.0016    1536.4608 
       2            0   -318.02658    30919.632    30919.632    30919.632    30919.632 4.0507633e-13 -1.9964476e-12 7.6964502e-12       8.0016      12.0024      16.0032    1536.9218 
       3            0   -318.03544     30652.25     30652.25     30652.25     30652.25 3.4131909e-12 1.4462673e-12 8.3304999e-12       8.0024      12.0036      16.0048    1537.3828 
       4            0   -318.04422    30385.312    30385.312    30385.312    30385.312 -3.5856675e-12 6.4773349e-12 -1.9663338e-12       8.0032      12.0048      16.0064    1537.8439 
       5            0   -318.05293    30118.816    30118.816    30118.816    30118.816 1.3297682e-12 1.1852282e-12 2.1507555e-11        8.004       12.006       16.008    1538.3052 
       6            0   -318.06156    29852.762    29852.762    29852.762    29852.762 -2.2541483e-12 -1.6183629e-12 4.6816926e-12       8.0048      12.0072      16.0096    1538.7665 
       7            0   -318.07012    29581.397    29581.397    29581.397    29581.397 -1.8490032e-12 -5.5470095e-12 9.9961734e-12       8.0056      12.0084      16.0112    1539.2279 
       8            0    -318.0786    29305.854    29305.854    29305.854    29305.854 -2.4838533e-12 3.9857181e-12 -1.4441008e-13       8.0064      12.0096      16.0128    1539.6893 
       9            0     -318.087    29030.725    29030.725    29030.725    29030.725 4.908471e-12 -2.6852224e-12 -1.6457815e-12       8.0072      12.0108      16.0144    1540.1509 
      10            0   -318.09533     28756.01     28756.01     28756.01     28756.01 1.0391294e-12 -1.7896118e-12 7.7357414e-12        8.008       12.012       16.016    1540.6126 
      11            0   -318.10358    28481.709    28481.709    28481.709    28481.709 -1.5582271e-12 -2.0776361e-12 5.3672267e-12       8.0088      12.0132      16.0176    1541.0744 
      12            0   -318.11175    28207.822    28207.822    28207.822    28207.822 -2.0770137e-12 3.923248e-12 1.315442e-11       8.0096      12.0144      16.0192    1541.5362 
      13            0   -318.11984    27934.349    27934.349    27934.349    27934.349 -5.767754e-14 -2.7108444e-12 2.3936179e-12       8.0104      12.0156      16.0208    1541.9982 
      14            0   -318.12786     27661.29     27661.29     27661.29     27661.29 -2.1334297e-12 -1.8739585e-12 2.9406734e-12       8.0112      12.0168      16.0224    1542.4602 
      15            0    -318.1358    27388.643    27388.643    27388.643    27388.643 -2.8245066e-12 -8.6752703e-12 -5.3896198e-12        8.012       12.018       16.024    1542.9224 
      16            0   -318.14366    27116.409    27116.409    27116.409    27116.409 1.3253918e-12 7.2032161e-12 5.4744442e-13       8.0128      12.0192      16.0256    1543.3846 
      17            0   -318.15145    26844.587    26844.587    26844.587    26844.587 4.032593e-13 3.7445507e-13 -1.469016e-12       8.0136      12.0204      16.0272    1543.8469 
      18            0   -318.15916    26573.179    26573.179    26573.179    26573.179 5.7591222e-13 2.8795611e-14 -5.0104363e-12       8.0144      12.0216      16.0288    1544.3093 
      19            0   -318.16679    26302.182    26302.182    26302.182    26302.182 3.3968648e-12 -8.6360969e-13 -1.7560064e-12       8.0152      12.0228      16.0304    1544.7718 
      20            0   -318.17434    26031.598    26031.598    26031.598    26031.598 -2.3022697e-12 4.0865288e-12 1.5540321e-12        8.016       12.024       16.032    1545.2344 
      21            0   -318.18182    25761.427    25761.427    25761.427    25761.427 -8.055532e-13 -6.3005768e-12 -1.7261854e-12       8.0168      12.0252      16.0336    1545.6971 
      22            0   -318.18922    25491.667    25491.667    25491.667    25491.667 -5.7522292e-13 8.3407323e-13 -2.0132802e-13       8.0176      12.0264      16.0352    1546.1599 
      23            0   -318.19655    25222.318    25222.318    25222.318    25222.318 -6.9006092e-13 -2.2714505e-12 7.4469074e-12       8.0184      12.0276      16.0368    1546.6228 
      24            0    -318.2038    24953.379    24953.379    24953.379    24953.379 -1.6671482e-12 -9.2555467e-12 -6.1512019e-12       8.0192      12.0288      16.0384    1547.0858 
      25            0   -318.21097    24684.851    24684.851    24684.851    24684.851 3.620652e-12 6.6091266e-13 5.4597133e-13         8.02        12.03        16.04    1547.5488 
      26            0   -318.21807    24416.734    24416.734    24416.734    24416.734 -8.6180207e-13 2.2981389e-12 -5.9464343e-12       8.0208      12.0312      16.0416     1548.012 
      27            0   -318.22509    24149.028    24149.028    24149.028    24149.028 -4.4225938e-12 1.0338531e-12 -3.7907947e-12       8.0216      12.0324      16.0432    1548.4752 
      28            0   -318.23203    23881.732    23881.732    23881.732    23881.732 5.1677192e-13 4.5935282e-13 1.0163181e-11       8.0224      12.0336      16.0448    1548.9386 
      29            0    -318.2389    23614.846    23614.846    23614.846    23614.846 1.4350482e-12 -2.38218e-12 -7.6631574e-12       8.0232      12.0348      16.0464     1549.402 
      30            0    -318.2457     23348.37     23348.37     23348.37     23348.37 1.4920038e-12 -7.6608656e-12 5.9393228e-12        8.024       12.036       16.048    1549.8655 
      31            0   -318.25241    23082.304    23082.304    23082.304    23082.304 -5.73676e-13 -3.155218e-12 -1.1071947e-11       8.0248      12.0372      16.0496    1550.3291 
      32            0   -318.25906    22816.646    22816.646    22816.646    22816.646 2.0646161e-12 5.7350447e-13 1.1441414e-11       8.0256      12.0384      16.0512    1550.7928 
      33            0   -318.26562    22551.398    22551.398    22551.398    22551.398 -5.73333e-13 -7.6969955e-12 -7.8833287e-12       8.0264      12.0396      16.0528    1551.2566 
      34            0   -318.27211    22286.558    22286.558    22286.558    22286.558 2.865808e-13 5.1584544e-13 -8.3108432e-13       8.0272      12.0408      16.0544    1551.7205 
      35            0   -318.27853    22022.128    22022.128    22022.128    22022.128 1.2032796e-12 -2.0484402e-12 2.3206106e-12        8.028       12.042       16.056    1552.1845 
      36            0   -318.28487    21758.106    21758.106    21758.106    21758.106 4.009733e-13 -2.0335075e-12 -6.8165461e-12       8.0288      12.0432      16.0576    1552.6486 
      37            0   -318.29114    21494.493    21494.493    21494.493    21494.493 -1.4316195e-12 -4.695712e-12 -7.5875835e-12       8.0296      12.0444      16.0592    1553.1128 
      38            0   -318.29733    21231.287    21231.287    21231.287    21231.287 -3.2631171e-12 4.8946756e-12 -4.6943088e-12       8.0304      12.0456      16.0608     1553.577 
      39            0   -318.30344    20968.489    20968.489    20968.489    20968.489 5.2652117e-12 -3.0332198e-12 1.2504878e-11       8.0312      12.0468      16.0624    1554.0414 
      40            0   -318.30948    20706.098    20706.098    20706.098    20706.098 1.601977e-12 -2.8606732e-14 -1.3244917e-11        8.032       12.048       16.064    1554.5058 
      41            0   -318.31545    20444.114    20444.114    20444.114    20444.114 -1.6586948e-12 3.4603804e-12 -3.1458004e-12       8.0328      12.0492      16.0656    1554.9704 
      42            0   -318.32134    20182.537    20182.537    20182.537    20182.537 5.9466457e-12 -3.2592193e-12 -4.9174186e-12       8.0336      12.0504      16.0672     1555.435 
      43            0   -318.32716    19921.367    19921.367    19921.367    19921.367 4.5729766e-13 2.5151371e-12 1.2604267e-11       8.0344      12.0516      16.0688    1555.8997 
      44            0    -318.3329    19660.603    19660.603    19660.603    19660.603 5.1430622e-13 3.1001236e-12 5.1430622e-13       8.0352      12.0528      16.0704    1556.3645 
      45            0   -318.33856    19400.246    19400.246    19400.246    19400.246 1.5424579e-12 1.2139715e-12 -1.3996377e-12        8.036       12.054       16.072    1556.8295 
      46            0   -318.34416    19140.295    19140.295    19140.295    19140.295 -2.2844405e-13 -8.32393e-12 -1.2307423e-11       8.0368      12.0552      16.0736    1557.2945 
      47            0   -318.34968    18880.749    18880.749    18880.749    18880.749 8.5640941e-13 4.981448e-12 -2.2837584e-13       8.0376      12.0564      16.0752    1557.7596 
      48            0   -318.35512    18621.609    18621.609    18621.609    18621.609 2.8538458e-12 -2.5113843e-12 -8.0478451e-12       8.0384      12.0576      16.0768    1558.2247 
      49            0   -318.36049    18362.873    18362.873    18362.873    18362.873 1.1982574e-12 9.1295804e-13 1.0869907e-11       8.0392      12.0588      16.0784      1558.69 
      50            0   -318.36579    18104.543    18104.543    18104.543    18104.543 5.0197705e-12 -5.2479419e-12 -1.2264212e-12         8.04        12.06        16.08    1559.1554 
      51            0   -318.37101    17846.618    17846.618    17846.618    17846.618 4.5620658e-13 -7.8410506e-13 -1.4256456e-12       8.0408      12.0612      16.0816    1559.6209 
      52            0   -318.37616    17589.098    17589.098    17589.098    17589.098 7.4111446e-13 1.8812906e-12 7.4111446e-13       8.0416      12.0624      16.0832    1560.0864 
      53            0   -318.38123    17331.982    17331.982    17331.982    17331.982 -2.1086964e-12 -4.8015586e-12 -3.4195076e-12       8.0424      12.0636      16.0848    1560.5521 
      54            0   -318.38623     17075.27     17075.27     17075.27     17075.27 1.4243698e-12 9.6857143e-13 -6.7515126e-12       8.0432      12.0648      16.0864    1561.0178 
      55            0   -318.39116    16818.962    16818.962    16818.962    16818.962 2.8478896e-13 -7.6465837e-12 5.5533848e-12        8.044       12.066       16.088    1561.4836 
      56            0   -318.39601    16563.056    16563.056    16563.056    16563.056 5.6940802e-14 -2.7616289e-12 4.7830274e-12       8.0448      12.0672      16.0896    1561.9496 
      57            0   -318.40079    16307.554    16307.554    16307.554    16307.554  6.26162e-13 1.8500241e-13 -1.2324007e-11       8.0456      12.0684      16.0912    1562.4156 
      58            0    -318.4055    16052.455    16052.455    16052.455    16052.455 -5.6906842e-14 5.6764574e-12 3.0729694e-12       8.0464      12.0696      16.0928    1562.8817 
      59            0   -318.41014    15797.759    15797.759    15797.759    15797.759 -5.6889871e-14 -1.976923e-12 1.0524626e-12       8.0472      12.0708      16.0944    1563.3479 
      60            0    -318.4147    15543.466    15543.466    15543.466    15543.466 1.5924414e-12 -8.1043894e-13 -3.696739e-13        8.048       12.072       16.096    1563.8142 
      61            0   -318.41918    15289.575    15289.575    15289.575    15289.575 -1.7056785e-13 -5.5434552e-12 -2.8712255e-12       8.0488      12.0732      16.0976    1564.2806 
      62            0    -318.4236    15036.086    15036.086    15036.086    15036.086 1.989365e-12 1.9183163e-12 -2.557755e-13       8.0496      12.0744      16.0992    1564.7471 
      63            0   -318.42794    14782.998    14782.998    14782.998    14782.998 2.6706367e-12 -5.1281907e-12 3.6082007e-12       8.0504      12.0756      16.1008    1565.2137 
      64            0   -318.43221    14530.312    14530.312    14530.312    14530.312 -2.8402561e-13 -1.8603677e-12 -6.8166146e-12       8.0512      12.0768      16.1024    1565.6803 
      65            0   -318.43641    14278.026    14278.026    14278.026    14278.026 -2.4418922e-12 3.6344443e-12 6.814583e-12        8.052       12.078       16.104    1566.1471 
      66            0   -318.44053    14026.142    14026.142    14026.142    14026.142 -2.3843933e-12 4.5842799e-12 -2.1856938e-12       8.0528      12.0792      16.1056     1566.614 
      67            0   -318.44458    13774.658    13774.658    13774.658    13774.658 -8.5131528e-13 1.0783327e-12 -9.0806963e-13       8.0536      12.0804      16.1072    1567.0809 
      68            0   -318.44856    13523.576    13523.576    13523.576    13523.576 1.1347488e-12 1.0780114e-12 -7.1489177e-12       8.0544      12.0816      16.1088     1567.548 
      69            0   -318.45247    13272.893    13272.893    13272.893    13272.893 -3.2330708e-12 -2.8218468e-12 -4.9063267e-12       8.0552      12.0828      16.1104    1568.0151 
      70            0    -318.4563     13022.61     13022.61     13022.61     13022.61 1.9846275e-12 -4.2527733e-13 -8.5055465e-14        8.056       12.084       16.112    1568.4823 
      71            0   -318.46006    12772.727    12772.727    12772.727    12772.727 -2.1540966e-12 2.9760546e-13 -4.4499102e-12       8.0568      12.0852      16.1136    1568.9496 
      72            0   -318.46375    12523.243    12523.243    12523.243    12523.243 -1.7000961e-12 -2.4651394e-12 -1.331742e-12       8.0576      12.0864      16.1152    1569.4171 
      73            0   -318.46737    12274.157    12274.157    12274.157    12274.157 2.0961608e-12 2.8326497e-14 4.9288106e-12       8.0584      12.0876      16.1168    1569.8846 
      74            0   -318.47092    12025.471    12025.471    12025.471    12025.471 1.6990838e-13 -9.3449607e-13 2.718534e-12       8.0592      12.0888      16.1184    1570.3522 
      75            0   -318.47439    11777.183    11777.183    11777.183    11777.183 5.0957337e-13 -4.3879929e-13 -3.3405365e-12         8.06        12.09        16.12    1570.8198 
      76            0   -318.47779    11529.294    11529.294    11529.294    11529.294 2.2640963e-13 1.3301566e-12 -2.5471083e-13       8.0608      12.0912      16.1216    1571.2876 
      77            0   -318.48112    11281.803    11281.803    11281.803    11281.803 2.7161068e-12 1.8673234e-12 6.5073391e-13       8.0616      12.0924      16.1232    1571.7555 
      78            0   -318.48438     11034.71     11034.71     11034.71     11034.71 -9.6166816e-13 -3.0688528e-12 4.3557911e-12       8.0624      12.0936      16.1248    1572.2235 
      79            0   -318.48757    10788.014    10788.014    10788.014    10788.014 -8.4827819e-13 -1.1310376e-13 -1.6117286e-12       8.0632      12.0948      16.1264    1572.6915 
      80            0   -318.49069    10541.714    10541.714    10541.714    10541.714            0 -2.5723448e-12 8.4802575e-13        8.064       12.096       16.128    1573.1597 
      81            0   -318.49373    10295.812    10295.812    10295.812    10295.812 1.6955468e-13 -2.5998385e-12 2.1759518e-12       8.0648      12.0972      16.1296    1573.6279 
      82            0   -318.49671    10050.306    10050.306    10050.306    10050.306 -7.9101976e-13 -6.7801694e-13 -7.6276905e-13       8.0656      12.0984      16.1312    1574.0963 
      83            0   -318.49961    9805.1973    9805.1973    9805.1973    9805.1973 3.2196223e-12 -3.5585299e-12 2.5700494e-12       8.0664      12.0996      16.1328    1574.5647 
      84            0   -318.50244    9560.4847    9560.4847    9560.4847    9560.4847 -2.1457764e-12 1.2846424e-12 -3.670407e-12       8.0672      12.1008      16.1344    1575.0333 
      85            0    -318.5052    9316.1678    9316.1678    9316.1678    9316.1678 5.6451004e-13 -4.191487e-12 -2.5402952e-13        8.068       12.102       16.136    1575.5019 
      86            0   -318.50789    9072.2462    9072.2462    9072.2462    9072.2462 -1.9187633e-12 1.6083751e-12 3.2731844e-12       8.0688      12.1032      16.1376    1575.9706 
      87            0   -318.51051    8828.7197    8828.7197    8828.7197    8828.7197 -1.0719312e-12 2.3977409e-13 -3.07475e-12       8.0696      12.1044      16.1392    1576.4394 
      88            0   -318.51306    8585.5882    8585.5882    8585.5882    8585.5882 -1.3536157e-12 4.1172479e-12 -2.6508308e-12       8.0704      12.1056      16.1408    1576.9083 
      89            0   -318.51553    8342.8515    8342.8515    8342.8515    8342.8515 -1.1840616e-12 -3.8482003e-12 7.6118247e-13       8.0712      12.1068      16.1424    1577.3773 
      90            0   -318.51794    8100.5094    8100.5094    8100.5094    8100.5094 3.0438247e-12 -2.6915302e-12 -1.6910137e-12        8.072       12.108       16.144    1577.8464 
      91            0   -318.52028    7858.5618    7858.5618    7858.5618    7858.5618 1.070657e-12 -1.8595621e-12 -8.6497815e-12       8.0728      12.1092      16.1456    1578.3155 
      92            0   -318.52254    7617.0084    7617.0084    7617.0084    7617.0084 -4.3376886e-12 1.3379234e-12 -6.1121976e-12       8.0736      12.1104      16.1472    1578.7848 
      93            0   -318.52474    7375.8485    7375.8485    7375.8485    7375.8485 1.0700206e-12 2.9707152e-12 -2.252675e-13       8.0744      12.1116      16.1488    1579.2542 
      94            0   -318.52687    7135.0816    7135.0816    7135.0816    7135.0816 -1.3512034e-12 -2.5898064e-12 1.8860547e-12       8.0752      12.1128      16.1504    1579.7236 
      95            0   -318.52892    6894.7075    6894.7075    6894.7075    6894.7075 2.7016037e-12 6.3318837e-13 1.1903941e-11        8.076       12.114       16.152    1580.1932 
      96            0   -318.53091    6654.7261    6654.7261    6654.7261    6654.7261 7.3146694e-13 3.6995347e-12 5.6266688e-14       8.0768      12.1152      16.1536    1580.6628 
      97            0   -318.53282    6415.1372    6415.1372    6415.1372    6415.1372 1.912499e-12 6.0749969e-12 -2.3906238e-12       8.0776      12.1164      16.1552    1581.1326 
      98            0   -318.53467    6175.9407    6175.9407    6175.9407    6175.9407 8.9973219e-13 -3.3739957e-13 2.8116631e-13       8.0784      12.1176      16.1568    1581.6024 
      99            0   -318.53645    5937.1364    5937.1364    5937.1364    5937.1364 -4.4973247e-13 -1.1946019e-12 8.7135666e-13       8.0792      12.1188      16.1584    1582.0723 
     100            0   -318.53815     5698.724     5698.724     5698.724     5698.724 -7.8679808e-13 -2.8099931e-14 3.8777905e-12         8.08        12.12        16.16    1582.5423 
Loop time of 23.7069 on 28 procs for 100 steps with 96 atoms

96.3% CPU use with 28 MPI tasks x no OpenMP threads

Minimization stats:
  Stopping criterion = max iterations
  Energy initial, next-to-last, final = 
        -318.008633938      -318.53644678     -318.538153521
  Force two-norm initial, final = 52.2325 9.65299
  Force max component initial, final = 30.1565 5.57316
  Final line search alpha, max atom move = 1.7226e-05 9.60034e-05
  Iterations, force evaluations = 100 100

MPI task timing breakdown:
Section |  min time  |  avg time  |  max time  |%varavg| %total
---------------------------------------------------------------
Pair    | 2.6483     | 2.8543     | 2.9596     |   5.3 | 12.04
Neigh   | 0          | 0          | 0          |   0.0 |  0.00
Comm    | 2.5832     | 2.8364     | 3.125      |   8.1 | 11.96
Output  | 6.612      | 6.6807     | 6.7623     |   1.4 | 28.18
Modify  | 0          | 0          | 0          |   0.0 |  0.00
Other   |            | 11.34      |            |       | 47.82

Nlocal:    3.42857 ave 6 max 3 min
Histogram: 24 0 0 0 0 0 0 0 0 4
Nghost:    388.714 ave 402 max 354 min
Histogram: 8 0 0 0 0 0 0 0 0 20
Neighs:    229.714 ave 404 max 184 min
Histogram: 14 10 0 0 0 0 0 0 0 4

Total # of neighbors = 6432
Ave neighs/atom = 67
Neighbor list builds = 0
Dangerous builds = 0
Displacing atoms ...
System init for write_restart ...
Reading restart file ...
  restart file = 17 Nov 2016, LAMMPS = 17 Nov 2016
  triclinic box = (-0.04 -0.06 -0.08) to (8.04 12.06 16.08) with tilt (0 0 0)
  2 by 2 by 7 MPI processor grid
  96 atoms
Reading potential file AlCu.eam.alloy with DATE: 2008-10-01
Changing box ...
  triclinic box = (-0.04 -0.06 -0.08) to (8.03999 12.06 16.08) with tilt (0 0 0)
  triclinic box = (-0.04 -0.06 -0.08) to (8.03999 12.06 16.08) with tilt (0 0 0)
  triclinic box = (-0.04 -0.06 -0.08) to (8.03999 12.06 16.08) with tilt (0 0 0)
Neighbor list info ...
  1 neighbor list requests
  update every 1 steps, delay 0 steps, check yes
  max neighbors/atom: 2000, page size: 100000
  master list distance cutoff = 7.6825
  ghost atom cutoff = 7.6825
Setting up cg style minimization ...
  Unit style    : metal
Memory usage per processor = 3.70903 Mbytes
Step Temp PotEng Press Pxx Pyy Pzz Pxy Pxz Pyz Lx Ly Lz Volume 
     100            0   -318.53815    5699.5261    5699.6593    5699.4595    5699.4595 -2.3007231e-06 -3.9023038e-06 3.9601785e-06    8.0799919        12.12        16.16    1582.5408 
     101            0   -318.53815     5699.526    5699.6592    5699.4594    5699.4594 -1.1792671e-07 2.2999193e-07 -6.9893541e-07    8.0799919        12.12        16.16    1582.5408 
     102            0   -318.53815     5699.526    5699.6592    5699.4594    5699.4594 1.1981025e-07 5.4740632e-08 -1.083859e-07    8.0799919        12.12        16.16    1582.5408 
     103            0   -318.53815     5699.526    5699.6592    5699.4594    5699.4594 6.6381742e-08 5.5631232e-08 8.8945926e-09    8.0799919        12.12        16.16    1582.5408 
     104            0   -318.53815     5699.526    5699.6592    5699.4594    5699.4594 5.1393224e-08 1.1973955e-08 1.4819919e-09    8.0799919        12.12        16.16    1582.5408 
     105            0   -318.53815     5699.526    5699.6592    5699.4594    5699.4594 2.3937063e-08 -1.089042e-09 9.2977146e-10    8.0799919        12.12        16.16    1582.5408 
     106            0   -318.53815     5699.526    5699.6592    5699.4594    5699.4594 7.4097345e-09 -5.2655952e-09 9.8144728e-10    8.0799919        12.12        16.16    1582.5408 
     107            0   -318.53815     5699.526    5699.6592    5699.4594    5699.4594 1.4254828e-09 -1.7235953e-09 1.1996435e-09    8.0799919        12.12        16.16    1582.5408 
     108            0   -318.53815     5699.526    5699.6592    5699.4594    5699.4594 5.0332647e-10 -1.7804134e-10 1.1453543e-10    8.0799919        12.12        16.16    1582.5408 
     109            0   -318.53815     5699.526    5699.6592    5699.4594    5699.4594 3.2624053e-11 -1.9417072e-10 -6.0133913e-12    8.0799919        12.12        16.16    1582.5408 
     110            0   -318.53815     5699.526    5699.6592    5699.4594    5699.4594 -4.0463942e-11 3.2876953e-11 4.8050931e-12    8.0799919        12.12        16.16    1582.5408 
     111            0   -318.53815     5699.526    5699.6592    5699.4594    5699.4594 -3.0207456e-11 3.5405949e-12 -6.4067908e-12    8.0799919        12.12        16.16    1582.5408 
     112            0   -318.53815     5699.526    5699.6592    5699.4594    5699.4594 6.7439903e-13 5.6199919e-12 -6.0695912e-12    8.0799919        12.12        16.16    1582.5408 
     113            0   -318.53815     5699.526    5699.6592    5699.4594    5699.4594 7.3902893e-12 -6.0695912e-12 3.0347956e-12    8.0799919        12.12        16.16    1582.5408 
     114            0   -318.53815     5699.526    5699.6592    5699.4594    5699.4594 6.3505908e-12 -1.2363982e-12 4.833193e-12    8.0799919        12.12        16.16    1582.5408 
     115            0   -318.53815     5699.526    5699.6592    5699.4594    5699.4594 -5.4513921e-12 -4.9455929e-12 2.107497e-12    8.0799919        12.12        16.16    1582.5408 
     116            0   -318.53815     5699.526    5699.6592    5699.4594    5699.4594 -4.2149939e-12 7.3059895e-12 -3.8215945e-12    8.0799919        12.12        16.16    1582.5408 
     117            0   -318.53815     5699.526    5699.6592    5699.4594    5699.4594 -8.4580878e-12 -2.3603966e-12 9.9473856e-12    8.0799919        12.12        16.16    1582.5408 
     118            0   -318.53815     5699.526    5699.6592    5699.4594    5699.4594 1.0958984e-12 -1.1801983e-12 -1.7421975e-12    8.0799919        12.12        16.16    1582.5408 
     119            0   -318.53815     5699.526    5699.6592    5699.4594    5699.4594 4.0463942e-12 -5.563792e-12 -2.4727964e-12    8.0799919        12.12        16.16    1582.5408 
     120            0   -318.53815     5699.526    5699.6592    5699.4594    5699.4594 -1.8545973e-12 -1.1577183e-11 2.5289964e-12    8.0799919        12.12        16.16    1582.5408 
     121            0   -318.53815     5699.526    5699.6592    5699.4594    5699.4594 -4.0463942e-12 -4.3835937e-12 7.1935896e-12    8.0799919        12.12        16.16    1582.5408 
     122            0   -318.53815     5699.526    5699.6592    5699.4594    5699.4594 7.8679886e-12 -3.3719951e-13 3.9058944e-12    8.0799919        12.12        16.16    1582.5408 
     123            0   -318.53815     5699.526    5699.6592    5699.4594    5699.4594 2.6975961e-12 4.1025941e-12 -5.563792e-12    8.0799919        12.12        16.16    1582.5408 
     124            0   -318.53815     5699.526    5699.6592    5699.4594    5699.4594 8.8514872e-12 -7.2497895e-12 -2.3041967e-12    8.0799919        12.12        16.16    1582.5408 
Loop time of 6.22304 on 28 procs for 24 steps with 96 atoms

96.2% CPU use with 28 MPI tasks x no OpenMP threads

Minimization stats:
  Stopping criterion = force tolerance
  Energy initial, next-to-last, final = 
        -318.538147874     -318.538147891     -318.538147891
  Force two-norm initial, final = 0.000404893 5.68663e-11
  Force max component initial, final = 6.14671e-05 9.3146e-12
  Final line search alpha, max atom move = 1 9.3146e-12
  Iterations, force evaluations = 24 48

MPI task timing breakdown:
Section |  min time  |  avg time  |  max time  |%varavg| %total
---------------------------------------------------------------
Pair    | 1.0782     | 1.1363     | 1.1882     |   4.7 | 18.26
Neigh   | 0          | 0          | 0          |   0.0 |  0.00
Comm    | 1.0567     | 1.1312     | 1.4111     |   8.0 | 18.18
Output  | 1.4993     | 1.506      | 1.5063     |   0.1 | 24.20
Modify  | 0          | 0          | 0          |   0.0 |  0.00
Other   |            | 2.45       |            |       | 39.36

Nlocal:    3.42857 ave 6 max 1 min
Histogram: 1 0 6 0 7 0 9 0 4 1
Nghost:    388.714 ave 404 max 354 min
Histogram: 8 0 0 0 0 0 0 0 0 20
Neighs:    229.714 ave 393 max 71 min
Histogram: 1 3 3 5 2 3 6 1 3 1

Total # of neighbors = 6432
Ave neighs/atom = 67
Neighbor list builds = 0
Dangerous builds = 0
Reading restart file ...
  restart file = 17 Nov 2016, LAMMPS = 17 Nov 2016
  triclinic box = (-0.04 -0.06 -0.08) to (8.04 12.06 16.08) with tilt (0 0 0)
  2 by 2 by 7 MPI processor grid
  96 atoms
Reading potential file AlCu.eam.alloy with DATE: 2008-10-01
Changing box ...
  triclinic box = (-0.04 -0.06 -0.08) to (8.04001 12.06 16.08) with tilt (0 0 0)
  triclinic box = (-0.04 -0.06 -0.08) to (8.04001 12.06 16.08) with tilt (0 0 0)
  triclinic box = (-0.04 -0.06 -0.08) to (8.04001 12.06 16.08) with tilt (0 0 0)
Neighbor list info ...
  1 neighbor list requests
  update every 1 steps, delay 0 steps, check yes
  max neighbors/atom: 2000, page size: 100000
  master list distance cutoff = 7.6825
  ghost atom cutoff = 7.6825
Setting up cg style minimization ...
  Unit style    : metal
Memory usage per processor = 3.70903 Mbytes
Step Temp PotEng Press Pxx Pyy Pzz Pxy Pxz Pyz Lx Ly Lz Volume 
     100            0   -318.53816    5697.9221    5697.7889    5697.9887    5697.9887 -2.3007298e-06 -3.9022872e-06 3.9601653e-06    8.0800081        12.12        16.16    1582.5439 
     101            0   -318.53816     5697.922    5697.7888    5697.9886    5697.9886 -1.1791661e-07 2.2999557e-07 -6.9893035e-07    8.0800081        12.12        16.16    1582.5439 
     102            0   -318.53816     5697.922    5697.7888    5697.9886    5697.9886 1.1980419e-07 5.4745356e-08 -1.0838504e-07    8.0800081        12.12        16.16    1582.5439 
     103            0   -318.53816     5697.922    5697.7888    5697.9886    5697.9886 6.6379053e-08 5.5626681e-08 8.9003915e-09    8.0800081        12.12        16.16    1582.5439 
     104            0   -318.53816     5697.922    5697.7888    5697.9886    5697.9886 5.138944e-08 1.196033e-08 1.4890139e-09    8.0800081        12.12        16.16    1582.5439 
     105            0   -318.53816     5697.922    5697.7888    5697.9886    5697.9886 2.3936762e-08 -1.0840381e-09 9.2521741e-10    8.0800081        12.12        16.16    1582.5439 
     106            0   -318.53816     5697.922    5697.7888    5697.9886    5697.9886 7.4161546e-09 -5.2709799e-09 9.9746227e-10    8.0800081        12.12        16.16    1582.5439 
     107            0   -318.53816     5697.922    5697.7888    5697.9886    5697.9886 1.4247213e-09 -1.7202761e-09 1.1984047e-09    8.0800081        12.12        16.16    1582.5439 
     108            0   -318.53816     5697.922    5697.7888    5697.9886    5697.9886 4.9888568e-10 -1.7191521e-10 1.1020782e-10    8.0800081        12.12        16.16    1582.5439 
     109            0   -318.53816     5697.922    5697.7888    5697.9886    5697.9886 2.6947807e-11 -2.0063331e-10 -2.1355926e-11    8.0800081        12.12        16.16    1582.5439 
     110            0   -318.53816     5697.922    5697.7888    5697.9886    5697.9886 -2.610481e-11 3.1022293e-11  8.71097e-12    8.0800081        12.12        16.16    1582.5439 
     111            0   -318.53816     5697.922    5697.7888    5697.9886    5697.9886 -1.4668149e-11 1.163336e-11 -7.1654753e-12    8.0800081        12.12        16.16    1582.5439 
     112            0   -318.53816     5697.922    5697.7888    5697.9886    5697.9886 9.582067e-12 1.7983938e-12 2.6975907e-12    8.0800081        12.12        16.16    1582.5439 
     113            0   -318.53816     5697.922    5697.7888    5697.9886    5697.9886 6.4629777e-13 -4.4959845e-13 -1.0677963e-12    8.0800081        12.12        16.16    1582.5439 
     114            0   -318.53816     5697.922    5697.7888    5697.9886    5697.9886 9.8349661e-12 5.6199806e-13 -5.6480806e-12    8.0800081        12.12        16.16    1582.5439 
     115            0   -318.53816     5697.922    5697.7888    5697.9886    5697.9886 5.9290796e-12 -7.3059748e-13 1.1239961e-13    8.0800081        12.12        16.16    1582.5439 
     116            0   -318.53816     5697.922    5697.7888    5697.9886    5697.9886 4.5521843e-12 -5.507581e-12 -1.1268061e-11    8.0800081        12.12        16.16    1582.5439 
     117            0   -318.53816     5697.922    5697.7888    5697.9886    5697.9886 6.6034773e-12 3.3157886e-12 8.5704705e-12    8.0800081        12.12        16.16    1582.5439 
     118            0   -318.53816     5697.922    5697.7888    5697.9886    5697.9886 3.203389e-12 6.5191776e-12 4.3835849e-12    8.0800081        12.12        16.16    1582.5439 
     119            0   -318.53816     5697.922    5697.7888    5697.9886    5697.9886 8.991969e-12 -3.3719884e-12 -2.9785897e-12    8.0800081        12.12        16.16    1582.5439 
     120            0   -318.53816     5697.922    5697.7888    5697.9886    5697.9886 1.4892949e-12 -7.249775e-12 4.3273851e-12    8.0800081        12.12        16.16    1582.5439 
     121            0   -318.53816     5697.922    5697.7888    5697.9886    5697.9886 -1.4330951e-12 -4.6645839e-12 -5.0860825e-12    8.0800081        12.12        16.16    1582.5439 
     122            0   -318.53816     5697.922    5697.7888    5697.9886    5697.9886 -2.1636926e-12 -9.5539671e-12 -1.1239961e-12    8.0800081        12.12        16.16    1582.5439 
     123            0   -318.53816     5697.922    5697.7888    5697.9886    5697.9886 -1.1239961e-11 -3.5405878e-12 -1.2363957e-12    8.0800081        12.12        16.16    1582.5439 
     124            0   -318.53816     5697.922    5697.7888    5697.9886    5697.9886 7.0811756e-12 -4.1587857e-12 -1.1801959e-12    8.0800081        12.12        16.16    1582.5439 
Loop time of 6.14419 on 28 procs for 24 steps with 96 atoms

96.3% CPU use with 28 MPI tasks x no OpenMP threads

Minimization stats:
  Stopping criterion = force tolerance
  Energy initial, next-to-last, final = 
        -318.538159132     -318.538159149     -318.538159149
  Force two-norm initial, final = 0.000404889 5.83831e-11
  Force max component initial, final = 6.14666e-05 1.00972e-11
  Final line search alpha, max atom move = 1 1.00972e-11
  Iterations, force evaluations = 24 48

MPI task timing breakdown:
Section |  min time  |  avg time  |  max time  |%varavg| %total
---------------------------------------------------------------
Pair    | 1.0722     | 1.0764     | 1.0786     |   0.2 | 17.52
Neigh   | 0          | 0          | 0          |   0.0 |  0.00
Comm    | 1.0773     | 1.0986     | 1.3531     |   6.6 | 17.88
Output  | 1.5142     | 1.5143     | 1.5152     |   0.0 | 24.65
Modify  | 0          | 0          | 0          |   0.0 |  0.00
Other   |            | 2.455      |            |       | 39.96

Nlocal:    3.42857 ave 6 max 1 min
Histogram: 1 0 6 0 7 0 9 0 4 1
Nghost:    388.714 ave 404 max 354 min
Histogram: 8 0 0 0 0 0 0 0 0 20
Neighs:    229.714 ave 393 max 71 min
Histogram: 1 3 3 5 2 3 6 1 3 1

Total # of neighbors = 6432
Ave neighs/atom = 67
Neighbor list builds = 0
Dangerous builds = 0
Reading restart file ...
  restart file = 17 Nov 2016, LAMMPS = 17 Nov 2016
  triclinic box = (-0.04 -0.06 -0.08) to (8.04 12.06 16.08) with tilt (0 0 0)
  2 by 2 by 7 MPI processor grid
  96 atoms
Reading potential file AlCu.eam.alloy with DATE: 2008-10-01
Changing box ...
  triclinic box = (-0.04 -0.06 -0.08) to (8.04 12.06 16.08) with tilt (0 0 0)
  triclinic box = (-0.04 -0.06 -0.08) to (8.04 12.06 16.08) with tilt (0 0 0)
Neighbor list info ...
  1 neighbor list requests
  update every 1 steps, delay 0 steps, check yes
  max neighbors/atom: 2000, page size: 100000
  master list distance cutoff = 7.6825
  ghost atom cutoff = 7.6825
Setting up cg style minimization ...
  Unit style    : metal
Memory usage per processor = 3.70903 Mbytes
Step Temp PotEng Press Pxx Pyy Pzz Pxy Pxz Pyz Lx Ly Lz Volume 
     100            0   -318.53815    5699.5261    5699.4595    5699.6593    5699.4595 -2.3007127e-06 -3.902289e-06 3.9601794e-06         8.08    12.119988        16.16    1582.5408 
     101            0   -318.53815     5699.526    5699.4594    5699.6592    5699.4594 -1.1792572e-07 2.2998018e-07 -6.9893406e-07         8.08    12.119988        16.16    1582.5408 
     102            0   -318.53815     5699.526    5699.4594    5699.6592    5699.4594 1.1980083e-07 5.4735686e-08 -1.0836929e-07         8.08    12.119988        16.16    1582.5408 
     103            0   -318.53815     5699.526    5699.4594    5699.6592    5699.4594 6.6389189e-08 5.5633536e-08 8.8965315e-09         8.08    12.119988        16.16    1582.5408 
     104            0   -318.53815     5699.526    5699.4594    5699.6592    5699.4594 5.1405813e-08 1.1976484e-08 1.4777769e-09         8.08    12.119988        16.16    1582.5408 
     105            0   -318.53815     5699.526    5699.4594    5699.6592    5699.4594 2.3925823e-08 -1.08848e-09 9.2387047e-10         8.08    12.119988        16.16    1582.5408 
     106            0   -318.53815     5699.526    5699.4594    5699.6592    5699.4594  7.41971e-09 -5.2577272e-09 9.9308067e-10         8.08    12.119988        16.16    1582.5408 
     107            0   -318.53815     5699.526    5699.4594    5699.6592    5699.4594 1.4223637e-09 -1.7183687e-09 1.2004022e-09         8.08    12.119988        16.16    1582.5408 
     108            0   -318.53815     5699.526    5699.4594    5699.6592    5699.4594 4.9486839e-10 -1.8517873e-10 1.1801983e-10         8.08    12.119988        16.16    1582.5408 
     109            0   -318.53815     5699.526    5699.4594    5699.6592    5699.4594 2.6104862e-11 -1.8012074e-10 -1.9950971e-11         8.08    12.119988        16.16    1582.5408 
     110            0   -318.53815     5699.526    5699.4594    5699.6592    5699.4594 -2.9448758e-11 4.186894e-11  6.91259e-12         8.08    12.119988        16.16    1582.5408 
     111            0   -318.53815     5699.526    5699.4594    5699.6592    5699.4594 -2.076587e-11 1.5173978e-11 5.4513921e-12         8.08    12.119988        16.16    1582.5408 
     112            0   -318.53815     5699.526    5699.4594    5699.6592    5699.4594 2.8099959e-13 -8.8233873e-12 -6.8563901e-12         8.08    12.119988        16.16    1582.5408 
     113            0   -318.53815     5699.526    5699.4594    5699.6592    5699.4594 1.7674874e-11 3.8777944e-12 -8.4299878e-14         8.08    12.119988        16.16    1582.5408 
     114            0   -318.53815     5699.526    5699.4594    5699.6592    5699.4594 -1.0031686e-11 -5.3951922e-12 -9.2729866e-13         8.08    12.119988        16.16    1582.5408 
     115            0   -318.53815     5699.526    5699.4594    5699.6592    5699.4594 4.8893929e-12 -7.1935896e-12 -3.1752954e-12         8.08    12.119988        16.16    1582.5408 
     116            0   -318.53815     5699.526    5699.4594    5699.6592    5699.4594 -2.3603966e-12 2.2479968e-12 4.2711938e-12         8.08    12.119988        16.16    1582.5408 
     117            0   -318.53815     5699.526    5699.4594    5699.6592    5699.4594 -5.8728915e-12 -1.4611979e-12 4.0744941e-12         8.08    12.119988        16.16    1582.5408 
     118            0   -318.53815     5699.526    5699.4594    5699.6592    5699.4594 -1.5454978e-12 8.2051882e-12 -8.1489882e-13         8.08    12.119988        16.16    1582.5408 
     119            0   -318.53815     5699.526    5699.4594    5699.6592    5699.4594 -2.1917968e-12 -2.5851963e-12 8.991987e-12         8.08    12.119988        16.16    1582.5408 
     120            0   -318.53815     5699.526    5699.4594    5699.6592    5699.4594 8.8514872e-12 -1.8545973e-12 7.8679886e-12         8.08    12.119988        16.16    1582.5408 
     121            0   -318.53815     5699.526    5699.4594    5699.6592    5699.4594 5.4794921e-12 -8.6547875e-12 -6.9687899e-12         8.08    12.119988        16.16    1582.5408 
     122            0   -318.53815     5699.526    5699.4594    5699.6592    5699.4594 7.1092897e-12 -5.2827924e-12 -4.6645933e-12         8.08    12.119988        16.16    1582.5408 
     123            0   -318.53815     5699.526    5699.4594    5699.6592    5699.4594 1.4359079e-11 -2.8099959e-13 2.2479968e-13         8.08    12.119988        16.16    1582.5408 
     124            0   -318.53815     5699.526    5699.4594    5699.6592    5699.4594 9.1043869e-12 -1.0734185e-11 4.0463942e-12         8.08    12.119988        16.16    1582.5408 
Loop time of 6.14419 on 28 procs for 24 steps with 96 atoms

96.3% CPU use with 28 MPI tasks x no OpenMP threads

Minimization stats:
  Stopping criterion = force tolerance
  Energy initial, next-to-last, final = 
        -318.538147874     -318.538147891     -318.538147891
  Force two-norm initial, final = 0.000404893 5.85755e-11
  Force max component initial, final = 6.14672e-05 9.74144e-12
  Final line search alpha, max atom move = 1 9.74144e-12
  Iterations, force evaluations = 24 48

MPI task timing breakdown:
Section |  min time  |  avg time  |  max time  |%varavg| %total
---------------------------------------------------------------
Pair    | 1.0761     | 1.0771     | 1.0776     |   0.0 | 17.53
Neigh   | 0          | 0          | 0          |   0.0 |  0.00
Comm    | 1.0768     | 1.0977     | 1.3527     |   6.6 | 17.87
Output  | 1.5172     | 1.5173     | 1.5182     |   0.0 | 24.69
Modify  | 0          | 0          | 0          |   0.0 |  0.00
Other   |            | 2.452      |            |       | 39.91

Nlocal:    3.42857 ave 6 max 1 min
Histogram: 1 0 6 0 7 0 9 0 4 1
Nghost:    388.714 ave 404 max 354 min
Histogram: 8 0 0 0 0 0 0 0 0 20
Neighs:    229.714 ave 393 max 71 min
Histogram: 1 3 3 5 2 3 6 1 3 1

Total # of neighbors = 6432
Ave neighs/atom = 67
Neighbor list builds = 0
Dangerous builds = 0
Reading restart file ...
  restart file = 17 Nov 2016, LAMMPS = 17 Nov 2016
  triclinic box = (-0.04 -0.06 -0.08) to (8.04 12.06 16.08) with tilt (0 0 0)
  2 by 2 by 7 MPI processor grid
  96 atoms
Reading potential file AlCu.eam.alloy with DATE: 2008-10-01
Changing box ...
  triclinic box = (-0.04 -0.06 -0.08) to (8.04 12.06 16.08) with tilt (0 0 0)
  triclinic box = (-0.04 -0.06 -0.08) to (8.04 12.06 16.08) with tilt (0 0 0)
Neighbor list info ...
  1 neighbor list requests
  update every 1 steps, delay 0 steps, check yes
  max neighbors/atom: 2000, page size: 100000
  master list distance cutoff = 7.6825
  ghost atom cutoff = 7.6825
Setting up cg style minimization ...
  Unit style    : metal
Memory usage per processor = 3.70903 Mbytes
Step Temp PotEng Press Pxx Pyy Pzz Pxy Pxz Pyz Lx Ly Lz Volume 
     100            0   -318.53816    5697.9221    5697.9887    5697.7889    5697.9887 -2.3007208e-06 -3.9022952e-06 3.9601508e-06         8.08    12.120012        16.16    1582.5439 
     101            0   -318.53816     5697.922    5697.9886    5697.7888    5697.9886 -1.1791824e-07 2.2999861e-07 -6.9893392e-07         8.08    12.120012        16.16    1582.5439 
     102            0   -318.53816     5697.922    5697.9886    5697.7888    5697.9886 1.198034e-07 5.474558e-08 -1.0838082e-07         8.08    12.120012        16.16    1582.5439 
     103            0   -318.53816     5697.922    5697.9886    5697.7888    5697.9886 6.6387145e-08 5.5614317e-08  8.88592e-09         8.08    12.120012        16.16    1582.5439 
     104            0   -318.53816     5697.922    5697.9886    5697.7888    5697.9886 5.1390143e-08 1.1979888e-08 1.475273e-09         8.08    12.120012        16.16    1582.5439 
     105            0   -318.53816     5697.922    5697.9886    5697.7888    5697.9886 2.3938673e-08 -1.0682459e-09 9.2159253e-10         8.08    12.120012        16.16    1582.5439 
     106            0   -318.53816     5697.922    5697.9886    5697.7888    5697.9886 7.408118e-09 -5.2809834e-09 9.885546e-10         8.08    12.120012        16.16    1582.5439 
     107            0   -318.53816     5697.922    5697.9886    5697.7888    5697.9886 1.4205625e-09 -1.7191521e-09 1.2007089e-09         8.08    12.120012        16.16    1582.5439 
     108            0   -318.53816     5697.922    5697.9886    5697.7888    5697.9886 5.0020638e-10 -1.7253341e-10 1.3299684e-10         8.08    12.120012        16.16    1582.5439 
     109            0   -318.53816     5697.922    5697.9886    5697.7888    5697.9886 2.8605702e-11 -1.9574393e-10 -2.1552626e-11         8.08    12.120012        16.16    1582.5439 
     110            0   -318.53816     5697.922    5697.9886    5697.7888    5697.9886 -2.8240403e-11 3.5462078e-11 1.1380461e-11         8.08    12.120012        16.16    1582.5439 
     111            0   -318.53816     5697.922    5697.9886    5697.7888    5697.9886 -2.621721e-11 -3.6529874e-12 -2.1636926e-12         8.08    12.120012        16.16    1582.5439 
     112            0   -318.53816     5697.922    5697.9886    5697.7888    5697.9886 -4.4397847e-12 -2.2479923e-12 -7.0530757e-12         8.08    12.120012        16.16    1582.5439 
     113            0   -318.53816     5697.922    5697.9886    5697.7888    5697.9886 6.1819787e-13 -1.9669932e-12 1.4049952e-12         8.08    12.120012        16.16    1582.5439 
     114            0   -318.53816     5697.922    5697.9886    5697.7888    5697.9886 -1.2785456e-11 6.0133793e-12 -6.4629777e-12         8.08    12.120012        16.16    1582.5439 
     115            0   -318.53816     5697.922    5697.9886    5697.7888    5697.9886 7.2778749e-12 -9.3291679e-12 -2.332292e-12         8.08    12.120012        16.16    1582.5439 
     116            0   -318.53816     5697.922    5697.9886    5697.7888    5697.9886 1.4330951e-12 7.3059748e-13 9.2729681e-13         8.08    12.120012        16.16    1582.5439 
     117            0   -318.53816     5697.922    5697.9886    5697.7888    5697.9886 1.0200265e-11 4.3835849e-12 -5.1422823e-12         8.08    12.120012        16.16    1582.5439 
     118            0   -318.53816     5697.922    5697.9886    5697.7888    5697.9886 -3.1471892e-12 -6.2381785e-12 2.8099903e-13         8.08    12.120012        16.16    1582.5439 
     119            0   -318.53816     5697.922    5697.9886    5697.7888    5697.9886 5.3670815e-12 -3.1471892e-12 -1.1942459e-11         8.08    12.120012        16.16    1582.5439 
     120            0   -318.53816     5697.922    5697.9886    5697.7888    5697.9886 -6.4910777e-12 1.2363957e-12 1.9669932e-13         8.08    12.120012        16.16    1582.5439 
     121            0   -318.53816     5697.922    5697.9886    5697.7888    5697.9886 3.0066896e-12 -2.5851911e-12 1.5173948e-12         8.08    12.120012        16.16    1582.5439 
     122            0   -318.53816     5697.922    5697.9886    5697.7888    5697.9886 -1.1099462e-11 -8.7671698e-12 4.4959845e-12         8.08    12.120012        16.16    1582.5439 
     123            0   -318.53816     5697.922    5697.9886    5697.7888    5697.9886 1.5173948e-12 -3.5967876e-12 2.4165917e-12         8.08    12.120012        16.16    1582.5439 
     124            0   -318.53816     5697.922    5697.9886    5697.7888    5697.9886 4.1868856e-12 -1.4274751e-11 3.0628895e-12         8.08    12.120012        16.16    1582.5439 
Loop time of 6.14419 on 28 procs for 24 steps with 96 atoms

96.3% CPU use with 28 MPI tasks x no OpenMP threads

Minimization stats:
  Stopping criterion = force tolerance
  Energy initial, next-to-last, final = 
        -318.538159132     -318.538159149     -318.538159149
  Force two-norm initial, final = 0.000404889 5.93524e-11
  Force max component initial, final = 6.14666e-05 1.05247e-11
  Final line search alpha, max atom move = 1 1.05247e-11
  Iterations, force evaluations = 24 48

MPI task timing breakdown:
Section |  min time  |  avg time  |  max time  |%varavg| %total
---------------------------------------------------------------
Pair    | 1.0703     | 1.0778     | 1.0796     |   0.3 | 17.54
Neigh   | 0          | 0          | 0          |   0.0 |  0.00
Comm    | 1.0768     | 1.098      | 1.3517     |   6.6 | 17.87
Output  | 1.5152     | 1.5152     | 1.5153     |   0.0 | 24.66
Modify  | 0          | 0          | 0          |   0.0 |  0.00
Other   |            | 2.453      |            |       | 39.93

Nlocal:    3.42857 ave 6 max 1 min
Histogram: 1 0 6 0 7 0 9 0 4 1
Nghost:    388.714 ave 404 max 354 min
Histogram: 8 0 0 0 0 0 0 0 0 20
Neighs:    229.714 ave 393 max 71 min
Histogram: 1 3 3 5 2 3 6 1 3 1

Total # of neighbors = 6432
Ave neighs/atom = 67
Neighbor list builds = 0
Dangerous builds = 0
Reading restart file ...
  restart file = 17 Nov 2016, LAMMPS = 17 Nov 2016
  triclinic box = (-0.04 -0.06 -0.08) to (8.04 12.06 16.08) with tilt (0 0 0)
  2 by 2 by 7 MPI processor grid
  96 atoms
Reading potential file AlCu.eam.alloy with DATE: 2008-10-01
Changing box ...
  triclinic box = (-0.04 -0.06 -0.08) to (8.04 12.06 16.08) with tilt (0 0 0)
Neighbor list info ...
  1 neighbor list requests
  update every 1 steps, delay 0 steps, check yes
  max neighbors/atom: 2000, page size: 100000
  master list distance cutoff = 7.6825
  ghost atom cutoff = 7.6825
Setting up cg style minimization ...
  Unit style    : metal
Memory usage per processor = 3.70903 Mbytes
Step Temp PotEng Press Pxx Pyy Pzz Pxy Pxz Pyz Lx Ly Lz Volume 
     100            0   -318.53815    5699.5261    5699.4595    5699.4595    5699.6593 -2.300722e-06 -3.9023106e-06 3.9601892e-06         8.08        12.12    16.159984    1582.5408 
     101            0   -318.53815     5699.526    5699.4594    5699.4594    5699.6592 -1.1790948e-07 2.2999682e-07 -6.9893518e-07         8.08        12.12    16.159984    1582.5408 
     102            0   -318.53815     5699.526    5699.4594    5699.4594    5699.6592 1.198044e-07 5.4744116e-08 -1.083852e-07         8.08        12.12    16.159984    1582.5408 
     103            0   -318.53815     5699.526    5699.4594    5699.4594    5699.6592 6.6378567e-08 5.5639831e-08 8.9010556e-09         8.08        12.12    16.159984    1582.5408 
     104            0   -318.53815     5699.526    5699.4594    5699.4594    5699.6592 5.1389627e-08 1.1967042e-08 1.4771868e-09         8.08        12.12    16.159984    1582.5408 
     105            0   -318.53815     5699.526    5699.4594    5699.4594    5699.6592 2.3933691e-08 -1.079488e-09 9.2448867e-10         8.08        12.12    16.159984    1582.5408 
     106            0   -318.53815     5699.526    5699.4594    5699.4594    5699.6592 7.4132751e-09 -5.284928e-09 9.8268368e-10         8.08        12.12    16.159984    1582.5408 
     107            0   -318.53815     5699.526    5699.4594    5699.4594    5699.6592 1.4207058e-09 -1.7265739e-09 1.1949227e-09         8.08        12.12    16.159984    1582.5408 
     108            0   -318.53815     5699.526    5699.4594    5699.4594    5699.6592 5.0290497e-10 -1.6590216e-10 9.8574658e-11         8.08        12.12    16.159984    1582.5408 
     109            0   -318.53815     5699.526    5699.4594    5699.4594    5699.6592 1.5623577e-11 -1.9714932e-10 -2.3041967e-11         8.08        12.12    16.159984    1582.5408 
     110            0   -318.53815     5699.526    5699.4594    5699.4594    5699.6592 -3.9283743e-11 2.6638762e-11 5.0579927e-13         8.08        12.12    16.159984    1582.5408 
     111            0   -318.53815     5699.526    5699.4594    5699.4594    5699.6592 -2.3238666e-11 4.833193e-12 -6.1819911e-13         8.08        12.12    16.159984    1582.5408 
     112            0   -318.53815     5699.526    5699.4594    5699.4594    5699.6592 -4.5802934e-12 4.158794e-12 -1.4443379e-11         8.08        12.12    16.159984    1582.5408 
     113            0   -318.53815     5699.526    5699.4594    5699.4594    5699.6592 7.3059895e-12 -8.991987e-13 5.4794921e-12         8.08        12.12    16.159984    1582.5408 
     114            0   -318.53815     5699.526    5699.4594    5699.4594    5699.6592 -1.0958984e-12 9.666386e-12 -4.130694e-12         8.08        12.12    16.159984    1582.5408 
     115            0   -318.53815     5699.526    5699.4594    5699.4594    5699.6592 4.5240935e-12 -8.991987e-13 1.4977278e-11         8.08        12.12    16.159984    1582.5408 
     116            0   -318.53815     5699.526    5699.4594    5699.4594    5699.6592 8.2051882e-12 -2.753796e-12 1.1239984e-12         8.08        12.12    16.159984    1582.5408 
     117            0   -318.53815     5699.526    5699.4594    5699.4594    5699.6592 1.8545973e-12 -6.7439903e-12 -8.6266876e-12         8.08        12.12    16.159984    1582.5408 
     118            0   -318.53815     5699.526    5699.4594    5699.4594    5699.6592 -8.7109874e-13 -4.1025941e-12 1.9107972e-12         8.08        12.12    16.159984    1582.5408 
     119            0   -318.53815     5699.526    5699.4594    5699.4594    5699.6592 1.2223482e-11 7.3059895e-13 -8.4861878e-12         8.08        12.12    16.159984    1582.5408 
     120            0   -318.53815     5699.526    5699.4594    5699.4594    5699.6592 5.5075921e-12 -1.5735977e-12 1.3291281e-11         8.08        12.12    16.159984    1582.5408 
     121            0   -318.53815     5699.526    5699.4594    5699.4594    5699.6592 -6.4348907e-12 -1.5342578e-11 3.8496944e-12         8.08        12.12    16.159984    1582.5408 
     122            0   -318.53815     5699.526    5699.4594    5699.4594    5699.6592 -4.4959935e-12 1.5173978e-12 4.5521934e-12         8.08        12.12    16.159984    1582.5408 
     123            0   -318.53815     5699.526    5699.4594    5699.4594    5699.6592 1.0115985e-12 5.6761918e-12 1.6859976e-13         8.08        12.12    16.159984    1582.5408 
     124            0   -318.53815     5699.526    5699.4594    5699.4594    5699.6592 5.6199919e-13 8.991987e-12 -1.9669972e-13         8.08        12.12    16.159984    1582.5408 
Loop time of 6.16283 on 28 procs for 24 steps with 96 atoms

96.3% CPU use with 28 MPI tasks x no OpenMP threads

Minimization stats:
  Stopping criterion = force tolerance
  Energy initial, next-to-last, final = 
        -318.538147874     -318.538147891     -318.538147891
  Force two-norm initial, final = 0.000404893 5.99329e-11
  Force max component initial, final = 6.14672e-05 1.06822e-11
  Final line search alpha, max atom move = 1 1.06822e-11
  Iterations, force evaluations = 24 48

MPI task timing breakdown:
Section |  min time  |  avg time  |  max time  |%varavg| %total
---------------------------------------------------------------
Pair    | 1.0772     | 1.0815     | 1.0826     |   0.1 | 17.55
Neigh   | 0          | 0          | 0          |   0.0 |  0.00
Comm    | 1.0781     | 1.0982     | 1.3518     |   6.6 | 17.82
Output  | 1.5232     | 1.5232     | 1.5233     |   0.0 | 24.72
Modify  | 0          | 0          | 0          |   0.0 |  0.00
Other   |            | 2.46       |            |       | 39.91

Nlocal:    3.42857 ave 6 max 1 min
Histogram: 1 0 6 0 7 0 9 0 4 1
Nghost:    388.714 ave 404 max 354 min
Histogram: 8 0 0 0 0 0 0 0 0 20
Neighs:    229.714 ave 393 max 71 min
Histogram: 1 3 3 5 2 3 6 1 3 1

Total # of neighbors = 6432
Ave neighs/atom = 67
Neighbor list builds = 0
Dangerous builds = 0
Reading restart file ...
  restart file = 17 Nov 2016, LAMMPS = 17 Nov 2016
  triclinic box = (-0.04 -0.06 -0.08) to (8.04 12.06 16.08) with tilt (0 0 0)
  2 by 2 by 7 MPI processor grid
  96 atoms
Reading potential file AlCu.eam.alloy with DATE: 2008-10-01
Changing box ...
  triclinic box = (-0.04 -0.06 -0.08) to (8.04 12.06 16.08) with tilt (0 0 0)
Neighbor list info ...
  1 neighbor list requests
  update every 1 steps, delay 0 steps, check yes
  max neighbors/atom: 2000, page size: 100000
  master list distance cutoff = 7.6825
  ghost atom cutoff = 7.6825
Setting up cg style minimization ...
  Unit style    : metal
Memory usage per processor = 3.70903 Mbytes
Step Temp PotEng Press Pxx Pyy Pzz Pxy Pxz Pyz Lx Ly Lz Volume 
     100            0   -318.53816    5697.9221    5697.9887    5697.9887    5697.7889 -2.3007227e-06 -3.9022886e-06 3.9601546e-06         8.08        12.12    16.160016    1582.5439 
     101            0   -318.53816     5697.922    5697.9886    5697.9886    5697.7888 -1.1792037e-07 2.3000704e-07 -6.9893451e-07         8.08        12.12    16.160016    1582.5439 
     102            0   -318.53816     5697.922    5697.9886    5697.9886    5697.7888 1.1978834e-07 5.4739174e-08 -1.0838967e-07         8.08        12.12    16.160016    1582.5439 
     103            0   -318.53816     5697.922    5697.9886    5697.9886    5697.7888 6.638279e-08 5.5629603e-08 8.8827447e-09         8.08        12.12    16.160016    1582.5439 
     104            0   -318.53816     5697.922    5697.9886    5697.9886    5697.7888 5.1383652e-08 1.1969379e-08 1.4785888e-09         8.08        12.12    16.160016    1582.5439 
     105            0   -318.53816     5697.922    5697.9886    5697.9886    5697.7888 2.3933362e-08 -1.0797107e-09 9.2603231e-10         8.08        12.12    16.160016    1582.5439 
     106            0   -318.53816     5697.922    5697.9886    5697.9886    5697.7888 7.4103941e-09 -5.2833438e-09 1.0030541e-09         8.08        12.12    16.160016    1582.5439 
     107            0   -318.53816     5697.922    5697.9886    5697.9886    5697.7888 1.4196071e-09 -1.7153867e-09 1.2039123e-09         8.08        12.12    16.160016    1582.5439 
     108            0   -318.53816     5697.922    5697.9886    5697.9886    5697.7888 4.9734019e-10 -1.7601779e-10 1.0211505e-10         8.08        12.12    16.160016    1582.5439 
     109            0   -318.53816     5697.922    5697.9886    5697.9886    5697.7888 4.1475457e-11 -2.0007131e-10 -1.8798835e-11         8.08        12.12    16.160016    1582.5439 
     110            0   -318.53816     5697.922    5697.9886    5697.9886    5697.7888 -3.5293478e-11 3.5518278e-11 -6.8001766e-12         8.08        12.12    16.160016    1582.5439 
     111            0   -318.53816     5697.922    5697.9886    5697.9886    5697.7888 -1.5145848e-11 1.5848345e-11 -1.4892949e-11         8.08        12.12    16.160016    1582.5439 
     112            0   -318.53816     5697.922    5697.9886    5697.9886    5697.7888 1.2925955e-12 9.2167683e-12 2.2479923e-12         8.08        12.12    16.160016    1582.5439 
     113            0   -318.53816     5697.922    5697.9886    5697.9886    5697.7888 3.5967876e-12 1.2869756e-11 -1.1239961e-13         8.08        12.12    16.160016    1582.5439 
     114            0   -318.53816     5697.922    5697.9886    5697.9886    5697.7888 6.8563764e-12 4.4397847e-12 -1.1183761e-11         8.08        12.12    16.160016    1582.5439 
     115            0   -318.53816     5697.922    5697.9886    5697.9886    5697.7888 6.4348778e-12 1.0958962e-11 4.8331834e-12         8.08        12.12    16.160016    1582.5439 
     116            0   -318.53816     5697.922    5697.9886    5697.9886    5697.7888 -2.8099903e-14 -6.9125762e-12 5.0579826e-13         8.08        12.12    16.160016    1582.5439 
     117            0   -318.53816     5697.922    5697.9886    5697.9886    5697.7888 6.1538788e-12 2.3603919e-12 -9.1043687e-12         8.08        12.12    16.160016    1582.5439 
     118            0   -318.53816     5697.922    5697.9886    5697.9886    5697.7888 9.6382668e-12 3.8215868e-12 -8.429971e-13         8.08        12.12    16.160016    1582.5439 
     119            0   -318.53816     5697.922    5697.9886    5697.9886    5697.7888 5.1141824e-12 1.1239961e-12 1.6859942e-13         8.08        12.12    16.160016    1582.5439 
     120            0   -318.53816     5697.922    5697.9886    5697.9886    5697.7888 1.9669932e-12 4.4959845e-12 8.991969e-12         8.08        12.12    16.160016    1582.5439 
     121            0   -318.53816     5697.922    5697.9886    5697.9886    5697.7888 6.8001766e-12 7.1373754e-12 -9.1886684e-12         8.08        12.12    16.160016    1582.5439 
     122            0   -318.53816     5697.922    5697.9886    5697.9886    5697.7888 -2.5289913e-13 3.765387e-12 8.4861708e-12         8.08        12.12    16.160016    1582.5439 
     123            0   -318.53816     5697.922    5697.9886    5697.9886    5697.7888 -9.9192658e-12 1.0565564e-11 1.0846563e-11         8.08        12.12    16.160016    1582.5439 
     124            0   -318.53816     5697.922    5697.9886    5697.9886    5697.7888 9.2729681e-13 -2.4727915e-12 1.4359051e-11         8.08        12.12    16.160016    1582.5439 
Loop time of 6.16618 on 28 procs for 24 steps with 96 atoms

96.3% CPU use with 28 MPI tasks x no OpenMP threads

Minimization stats:
  Stopping criterion = force tolerance
  Energy initial, next-to-last, final = 
        -318.538159132     -318.538159149     -318.538159149
  Force two-norm initial, final = 0.000404889 5.77645e-11
  Force max component initial, final = 6.14665e-05 9.50909e-12
  Final line search alpha, max atom move = 1 9.50909e-12
  Iterations, force evaluations = 24 48

MPI task timing breakdown:
Section |  min time  |  avg time  |  max time  |%varavg| %total
---------------------------------------------------------------
Pair    | 1.0799     | 1.0813     | 1.0905     |   0.3 | 17.54
Neigh   | 0          | 0          | 0          |   0.0 |  0.00
Comm    | 1.0753     | 1.1059     | 1.3624     |   6.6 | 17.93
Output  | 1.518      | 1.5182     | 1.5232     |   0.1 | 24.62
Modify  | 0          | 0          | 0          |   0.0 |  0.00
Other   |            | 2.461      |            |       | 39.91

Nlocal:    3.42857 ave 6 max 1 min
Histogram: 1 0 6 0 7 0 9 0 4 1
Nghost:    388.714 ave 404 max 354 min
Histogram: 8 0 0 0 0 0 0 0 0 20
Neighs:    229.714 ave 393 max 71 min
Histogram: 1 3 3 5 2 3 6 1 3 1

Total # of neighbors = 6432
Ave neighs/atom = 67
Neighbor list builds = 0
Dangerous builds = 0
Reading restart file ...
  restart file = 17 Nov 2016, LAMMPS = 17 Nov 2016
  triclinic box = (-0.04 -0.06 -0.08) to (8.04 12.06 16.08) with tilt (0 0 0)
  2 by 2 by 7 MPI processor grid
  96 atoms
Reading potential file AlCu.eam.alloy with DATE: 2008-10-01
Changing box ...
  triclinic box = (-0.04 -0.06 -0.08) to (8.04 12.06 16.08) with tilt (0 0 -1.616e-05)
Neighbor list info ...
  1 neighbor list requests
  update every 1 steps, delay 0 steps, check yes
  max neighbors/atom: 2000, page size: 100000
  master list distance cutoff = 7.6825
  ghost atom cutoff = 7.6825
Setting up cg style minimization ...
  Unit style    : metal
Memory usage per processor = 3.70903 Mbytes
Step Temp PotEng Press Pxx Pyy Pzz Pxy Pxz Pyz Lx Ly Lz Volume 
     100            0   -318.53815    5698.7241    5698.7241    5698.7241    5698.7241 -2.3007078e-06 -3.902286e-06   0.34317903         8.08        12.12        16.16    1582.5423 
     101            0   -318.53815     5698.724     5698.724     5698.724     5698.724 -1.1791703e-07 2.3000367e-07   0.34317437         8.08        12.12        16.16    1582.5423 
     102            0   -318.53815     5698.724     5698.724     5698.724     5698.724 1.1980675e-07 5.4748333e-08   0.34317496         8.08        12.12        16.16    1582.5423 
     103            0   -318.53815     5698.724     5698.724     5698.724     5698.724 6.6387718e-08 5.5622522e-08   0.34317508         8.08        12.12        16.16    1582.5423 
     104            0   -318.53815     5698.724     5698.724     5698.724     5698.724 5.1387047e-08 1.1973943e-08   0.34317507         8.08        12.12        16.16    1582.5423 
     105            0   -318.53815     5698.724     5698.724     5698.724     5698.724 2.3928525e-08 -1.0709446e-09   0.34317507         8.08        12.12        16.16    1582.5423 
     106            0   -318.53815     5698.724     5698.724     5698.724     5698.724 7.4225407e-09 -5.2735703e-09   0.34317507         8.08        12.12        16.16    1582.5423 
     107            0   -318.53815     5698.724     5698.724     5698.724     5698.724 1.4200862e-09 -1.7279772e-09   0.34317507         8.08        12.12        16.16    1582.5423 
     108            0   -318.53815     5698.724     5698.724     5698.724     5698.724 4.9703159e-10 -1.7613037e-10   0.34317507         8.08        12.12        16.16    1582.5423 
     109            0   -318.53815     5698.724     5698.724     5698.724     5698.724 2.6807335e-11 -1.9029274e-10   0.34317507         8.08        12.12        16.16    1582.5423 
     110            0   -318.53815     5698.724     5698.724     5698.724     5698.724 -2.9757827e-11 2.9055329e-11   0.34317507         8.08        12.12        16.16    1582.5423 
     111            0   -318.53815     5698.724     5698.724     5698.724     5698.724 -1.9248453e-11 6.8001834e-12   0.34317507         8.08        12.12        16.16    1582.5423 
     112            0   -318.53815     5698.724     5698.724     5698.724     5698.724 -8.4299794e-14 1.1914371e-11   0.34317507         8.08        12.12        16.16    1582.5423 
     113            0   -318.53815     5698.724     5698.724     5698.724     5698.724 7.4464818e-12 1.5511162e-11   0.34317507         8.08        12.12        16.16    1582.5423 
     114            0   -318.53815     5698.724     5698.724     5698.724     5698.724 5.6199863e-14 -5.1703874e-12   0.34317507         8.08        12.12        16.16    1582.5423 
     115            0   -318.53815     5698.724     5698.724     5698.724     5698.724 7.6150814e-12 -2.6975934e-12   0.34317507         8.08        12.12        16.16    1582.5423 
     116            0   -318.53815     5698.724     5698.724     5698.724     5698.724 -7.0811827e-12 -1.2026771e-11   0.34317507         8.08        12.12        16.16    1582.5423 
     117            0   -318.53815     5698.724     5698.724     5698.724     5698.724 1.3403667e-11 5.5075865e-12   0.34317507         8.08        12.12        16.16    1582.5423 
     118            0   -318.53815     5698.724     5698.724     5698.724     5698.724 -1.8264955e-12 1.0115975e-12   0.34317507         8.08        12.12        16.16    1582.5423 
     119            0   -318.53815     5698.724     5698.724     5698.724     5698.724 -1.652276e-11 -7.4183819e-12   0.34317507         8.08        12.12        16.16    1582.5423 
     120            0   -318.53815     5698.724     5698.724     5698.724     5698.724 6.4629842e-13 -4.3835893e-12   0.34317507         8.08        12.12        16.16    1582.5423 
     121            0   -318.53815     5698.724     5698.724     5698.724     5698.724 2.8099931e-14 -5.3951868e-12   0.34317507         8.08        12.12        16.16    1582.5423 
     122            0   -318.53815     5698.724     5698.724     5698.724     5698.724 -5.8447857e-12 2.8099931e-13   0.34317507         8.08        12.12        16.16    1582.5423 
     123            0   -318.53815     5698.724     5698.724     5698.724     5698.724 -3.7372909e-12 -3.3719918e-13   0.34317507         8.08        12.12        16.16    1582.5423 
     124            0   -318.53815     5698.724     5698.724     5698.724     5698.724 4.9736878e-12 -7.3059822e-12   0.34317507         8.08        12.12        16.16    1582.5423 
Loop time of 6.14119 on 28 procs for 24 steps with 96 atoms

96.3% CPU use with 28 MPI tasks x no OpenMP threads

Minimization stats:
  Stopping criterion = force tolerance
  Energy initial, next-to-last, final = 
        -318.538153503      -318.53815352      -318.53815352
  Force two-norm initial, final = 0.000404891 5.68901e-11
  Force max component initial, final = 6.14669e-05 9.57108e-12
  Final line search alpha, max atom move = 1 9.57108e-12
  Iterations, force evaluations = 24 48

MPI task timing breakdown:
Section |  min time  |  avg time  |  max time  |%varavg| %total
---------------------------------------------------------------
Pair    | 1.0733     | 1.076      | 1.0772     |   0.1 | 17.52
Neigh   | 0          | 0          | 0          |   0.0 |  0.00
Comm    | 1.0737     | 1.0949     | 1.3499     |   6.6 | 17.83
Output  | 1.5182     | 1.5192     | 1.5193     |   0.0 | 24.74
Modify  | 0          | 0          | 0          |   0.0 |  0.00
Other   |            | 2.451      |            |       | 39.91

Nlocal:    3.42857 ave 6 max 1 min
Histogram: 1 0 6 0 7 0 9 0 4 1
Nghost:    388.714 ave 404 max 354 min
Histogram: 8 0 0 0 0 0 0 0 0 20
Neighs:    229.714 ave 393 max 71 min
Histogram: 1 3 3 5 2 3 6 1 3 1

Total # of neighbors = 6432
Ave neighs/atom = 67
Neighbor list builds = 0
Dangerous builds = 0
Reading restart file ...
  restart file = 17 Nov 2016, LAMMPS = 17 Nov 2016
  triclinic box = (-0.04 -0.06 -0.08) to (8.04 12.06 16.08) with tilt (0 0 0)
  2 by 2 by 7 MPI processor grid
  96 atoms
Reading potential file AlCu.eam.alloy with DATE: 2008-10-01
Changing box ...
  triclinic box = (-0.04 -0.06 -0.08) to (8.04 12.06 16.08) with tilt (0 0 1.616e-05)
Neighbor list info ...
  1 neighbor list requests
  update every 1 steps, delay 0 steps, check yes
  max neighbors/atom: 2000, page size: 100000
  master list distance cutoff = 7.6825
  ghost atom cutoff = 7.6825
Setting up cg style minimization ...
  Unit style    : metal
Memory usage per processor = 3.70903 Mbytes
Step Temp PotEng Press Pxx Pyy Pzz Pxy Pxz Pyz Lx Ly Lz Volume 
     100            0   -318.53815    5698.7241    5698.7241    5698.7241    5698.7241 -2.3007327e-06 -3.9022877e-06  -0.34317111         8.08        12.12        16.16    1582.5423 
     101            0   -318.53815     5698.724     5698.724     5698.724     5698.724 -1.1790922e-07 2.2999108e-07  -0.34317577         8.08        12.12        16.16    1582.5423 
     102            0   -318.53815     5698.724     5698.724     5698.724     5698.724 1.1979521e-07 5.4739003e-08  -0.34317518         8.08        12.12        16.16    1582.5423 
     103            0   -318.53815     5698.724     5698.724     5698.724     5698.724 6.6389741e-08 5.5624376e-08  -0.34317506         8.08        12.12        16.16    1582.5423 
     104            0   -318.53815     5698.724     5698.724     5698.724     5698.724 5.1389829e-08 1.1970683e-08  -0.34317507         8.08        12.12        16.16    1582.5423 
     105            0   -318.53815     5698.724     5698.724     5698.724     5698.724 2.3928721e-08 -1.0869615e-09  -0.34317507         8.08        12.12        16.16    1582.5423 
     106            0   -318.53815     5698.724     5698.724     5698.724     5698.724 7.4196745e-09 -5.2788531e-09  -0.34317507         8.08        12.12        16.16    1582.5423 
     107            0   -318.53815     5698.724     5698.724     5698.724     5698.724 1.4231491e-09 -1.7124098e-09  -0.34317507         8.08        12.12        16.16    1582.5423 
     108            0   -318.53815     5698.724     5698.724     5698.724     5698.724 4.9422159e-10 -1.8495375e-10  -0.34317507         8.08        12.12        16.16    1582.5423 
     109            0   -318.53815     5698.724     5698.724     5698.724     5698.724 1.7169058e-11 -1.9315893e-10  -0.34317507         8.08        12.12        16.16    1582.5423 
     110            0   -318.53815     5698.724     5698.724     5698.724     5698.724 -1.5061563e-11 2.7594133e-11  -0.34317507         8.08        12.12        16.16    1582.5423 
     111            0   -318.53815     5698.724     5698.724     5698.724     5698.724 -1.4443365e-11 4.9455879e-12  -0.34317507         8.08        12.12        16.16    1582.5423 
     112            0   -318.53815     5698.724     5698.724     5698.724     5698.724 6.8282833e-12 2.8099931e-12  -0.34317507         8.08        12.12        16.16    1582.5423 
     113            0   -318.53815     5698.724     5698.724     5698.724     5698.724 1.5820261e-11 -8.4299794e-13  -0.34317507         8.08        12.12        16.16    1582.5423 
     114            0   -318.53815     5698.724     5698.724     5698.724     5698.724 -3.9058905e-12 7.4183819e-12  -0.34317507         8.08        12.12        16.16    1582.5423 
     115            0   -318.53815     5698.724     5698.724     5698.724     5698.724 -7.0811827e-12 -2.4165941e-12  -0.34317507         8.08        12.12        16.16    1582.5423 
     116            0   -318.53815     5698.724     5698.724     5698.724     5698.724 -2.866193e-12 5.338987e-12  -0.34317507         8.08        12.12        16.16    1582.5423 
     117            0   -318.53815     5698.724     5698.724     5698.724     5698.724 5.338987e-12 -2.4165941e-12  -0.34317507         8.08        12.12        16.16    1582.5423 
     118            0   -318.53815     5698.724     5698.724     5698.724     5698.724 -2.9504928e-12 -2.4165941e-12  -0.34317507         8.08        12.12        16.16    1582.5423 
     119            0   -318.53815     5698.724     5698.724     5698.724     5698.724 -4.1587898e-12 -9.2167775e-12  -0.34317507         8.08        12.12        16.16    1582.5423 
     120            0   -318.53815     5698.724     5698.724     5698.724     5698.724 2.051295e-12 -9.5539767e-13  -0.34317507         8.08        12.12        16.16    1582.5423 
     121            0   -318.53815     5698.724     5698.724     5698.724     5698.724 -7.0530828e-12 8.7671786e-12  -0.34317507         8.08        12.12        16.16    1582.5423 
     122            0   -318.53815     5698.724     5698.724     5698.724     5698.724 -6.2100848e-12 9.3853771e-12  -0.34317507         8.08        12.12        16.16    1582.5423 
     123            0   -318.53815     5698.724     5698.724     5698.724     5698.724 -8.4299794e-14 -1.2869769e-11  -0.34317507         8.08        12.12        16.16    1582.5423 
     124            0   -318.53815     5698.724     5698.724     5698.724     5698.724 2.051295e-12 3.3157919e-12  -0.34317507         8.08        12.12        16.16    1582.5423 
Loop time of 6.14319 on 28 procs for 24 steps with 96 atoms

96.3% CPU use with 28 MPI tasks x no OpenMP threads

Minimization stats:
  Stopping criterion = force tolerance
  Energy initial, next-to-last, final = 
        -318.538153503      -318.53815352      -318.53815352
  Force two-norm initial, final = 0.000404891 5.68886e-11
  Force max component initial, final = 6.14669e-05 9.52841e-12
  Final line search alpha, max atom move = 1 9.52841e-12
  Iterations, force evaluations = 24 48

MPI task timing breakdown:
Section |  min time  |  avg time  |  max time  |%varavg| %total
---------------------------------------------------------------
Pair    | 1.0721     | 1.0776     | 1.0786     |   0.2 | 17.54
Neigh   | 0          | 0          | 0          |   0.0 |  0.00
Comm    | 1.0779     | 1.1002     | 1.3537     |   6.6 | 17.91
Output  | 1.5152     | 1.5153     | 1.5162     |   0.0 | 24.67
Modify  | 0          | 0          | 0          |   0.0 |  0.00
Other   |            | 2.45       |            |       | 39.88

Nlocal:    3.42857 ave 6 max 1 min
Histogram: 1 0 6 0 7 0 9 0 4 1
Nghost:    388.714 ave 404 max 354 min
Histogram: 8 0 0 0 0 0 0 0 0 20
Neighs:    229.714 ave 393 max 71 min
Histogram: 1 3 3 5 2 3 6 1 3 1

Total # of neighbors = 6432
Ave neighs/atom = 67
Neighbor list builds = 0
Dangerous builds = 0
Reading restart file ...
  restart file = 17 Nov 2016, LAMMPS = 17 Nov 2016
  triclinic box = (-0.04 -0.06 -0.08) to (8.04 12.06 16.08) with tilt (0 0 0)
  2 by 2 by 7 MPI processor grid
  96 atoms
Reading potential file AlCu.eam.alloy with DATE: 2008-10-01
Changing box ...
  triclinic box = (-0.04 -0.06 -0.08) to (8.04 12.06 16.08) with tilt (0 -1.616e-05 0)
Neighbor list info ...
  1 neighbor list requests
  update every 1 steps, delay 0 steps, check yes
  max neighbors/atom: 2000, page size: 100000
  master list distance cutoff = 7.6825
  ghost atom cutoff = 7.6825
Setting up cg style minimization ...
  Unit style    : metal
Memory usage per processor = 3.70903 Mbytes
Step Temp PotEng Press Pxx Pyy Pzz Pxy Pxz Pyz Lx Ly Lz Volume 
     100            0   -318.53815    5698.7241    5698.7241    5698.7241    5698.7241 -2.3007302e-06   0.34317117 3.9601771e-06         8.08        12.12        16.16    1582.5423 
     101            0   -318.53815     5698.724     5698.724     5698.724     5698.724 -1.1792465e-07    0.3431753 -6.9892993e-07         8.08        12.12        16.16    1582.5423 
     102            0   -318.53815     5698.724     5698.724     5698.724     5698.724 1.1979917e-07   0.34317513 -1.0838742e-07         8.08        12.12        16.16    1582.5423 
     103            0   -318.53815     5698.724     5698.724     5698.724     5698.724 6.6384177e-08   0.34317513 8.8911836e-09         8.08        12.12        16.16    1582.5423 
     104            0   -318.53815     5698.724     5698.724     5698.724     5698.724 5.1394409e-08   0.34317508 1.4875542e-09         8.08        12.12        16.16    1582.5423 
     105            0   -318.53815     5698.724     5698.724     5698.724     5698.724 2.3938135e-08   0.34317507 9.3016393e-10         8.08        12.12        16.16    1582.5423 
     106            0   -318.53815     5698.724     5698.724     5698.724     5698.724 7.4175951e-09   0.34317507 9.9830626e-10         8.08        12.12        16.16    1582.5423 
     107            0   -318.53815     5698.724     5698.724     5698.724     5698.724 1.4216598e-09   0.34317507 1.1995299e-09         8.08        12.12        16.16    1582.5423 
     108            0   -318.53815     5698.724     5698.724     5698.724     5698.724 4.9568279e-10   0.34317507 1.1054513e-10         8.08        12.12        16.16    1582.5423 
     109            0   -318.53815     5698.724     5698.724     5698.724     5698.724 1.8714554e-11   0.34317507 -2.1721247e-11         8.08        12.12        16.16    1582.5423 
     110            0   -318.53815     5698.724     5698.724     5698.724     5698.724 -4.1222599e-11   0.34317507            0         8.08        12.12        16.16    1582.5423 
     111            0   -318.53815     5698.724     5698.724     5698.724     5698.724 -2.9027229e-11   0.34317507 -1.9107953e-12         8.08        12.12        16.16    1582.5423 
     112            0   -318.53815     5698.724     5698.724     5698.724     5698.724 1.3263168e-11   0.34317507 -3.1752922e-12         8.08        12.12        16.16    1582.5423 
     113            0   -318.53815     5698.724     5698.724     5698.724     5698.724 2.5851937e-12   0.34317507 -1.208297e-12         8.08        12.12        16.16    1582.5423 
     114            0   -318.53815     5698.724     5698.724     5698.724     5698.724 3.3438918e-12   0.34317507 2.866193e-12         8.08        12.12        16.16    1582.5423 
     115            0   -318.53815     5698.724     5698.724     5698.724     5698.724 -1.0706074e-11   0.34317507 5.5637864e-12         8.08        12.12        16.16    1582.5423 
     116            0   -318.53815     5698.724     5698.724     5698.724     5698.724 8.1489801e-13   0.34317507 1.5735962e-12         8.08        12.12        16.16    1582.5423 
     117            0   -318.53815     5698.724     5698.724     5698.724     5698.724 1.0481274e-11   0.34317507 -3.7091909e-12         8.08        12.12        16.16    1582.5423 
     118            0   -318.53815     5698.724     5698.724     5698.724     5698.724 -1.1071373e-11   0.34317507 -8.7671786e-12         8.08        12.12        16.16    1582.5423 
     119            0   -318.53815     5698.724     5698.724     5698.724     5698.724 7.362182e-12   0.34317507 -4.5521889e-12         8.08        12.12        16.16    1582.5423 
     120            0   -318.53815     5698.724     5698.724     5698.724     5698.724 -2.3041944e-12   0.34317507 9.1886776e-12         8.08        12.12        16.16    1582.5423 
     121            0   -318.53815     5698.724     5698.724     5698.724     5698.724 5.9852854e-12   0.34317507 -4.495989e-13         8.08        12.12        16.16    1582.5423 
     122            0   -318.53815     5698.724     5698.724     5698.724     5698.724 4.4397892e-12   0.34317507 4.9455879e-12         8.08        12.12        16.16    1582.5423 
     123            0   -318.53815     5698.724     5698.724     5698.724     5698.724 -2.3322943e-12   0.34317507 -1.5735962e-12         8.08        12.12        16.16    1582.5423 
     124            0   -318.53815     5698.724     5698.724     5698.724     5698.724 1.6578959e-12   0.34317507 4.8050883e-12         8.08        12.12        16.16    1582.5423 
Loop time of 6.15619 on 28 procs for 24 steps with 96 atoms

96.3% CPU use with 28 MPI tasks x no OpenMP threads

Minimization stats:
  Stopping criterion = force tolerance
  Energy initial, next-to-last, final = 
        -318.538153503      -318.53815352      -318.53815352
  Force two-norm initial, final = 0.000404891 5.68906e-11
  Force max component initial, final = 6.14668e-05 9.60567e-12
  Final line search alpha, max atom move = 1 9.60567e-12
  Iterations, force evaluations = 24 48

MPI task timing breakdown:
Section |  min time  |  avg time  |  max time  |%varavg| %total
---------------------------------------------------------------
[...]
     104            0   -318.53815     5698.724     5698.724     5698.724     5698.724 5.1395336e-08  -0.34317506 1.4874418e-09         8.08        12.12        16.16    1582.5423 
     105            0   -318.53815     5698.724     5698.724     5698.724     5698.724 2.3935184e-08  -0.34317507 9.3168132e-10         8.08        12.12        16.16    1582.5423 
     106            0   -318.53815     5698.724     5698.724     5698.724     5698.724 7.4316169e-09  -0.34317508 9.8529599e-10         8.08        12.12        16.16    1582.5423 
     107            0   -318.53815     5698.724     5698.724     5698.724     5698.724 1.4196928e-09  -0.34317507 1.2075664e-09         8.08        12.12        16.16    1582.5423 
     108            0   -318.53815     5698.724     5698.724     5698.724     5698.724 4.9840848e-10  -0.34317507 1.1647422e-10         8.08        12.12        16.16    1582.5423 
     109            0   -318.53815     5698.724     5698.724     5698.724     5698.724 3.2286821e-11  -0.34317507 -1.9613752e-11         8.08        12.12        16.16    1582.5423 
     110            0   -318.53815     5698.724     5698.724     5698.724     5698.724 -3.1584323e-11  -0.34317507 -8.991978e-12         8.08        12.12        16.16    1582.5423 
     111            0   -318.53815     5698.724     5698.724     5698.724     5698.724 -1.1830071e-11  -0.34317507 -2.9785927e-12         8.08        12.12        16.16    1582.5423 
     112            0   -318.53815     5698.724     5698.724     5698.724     5698.724 -4.10259e-12  -0.34317507 5.310887e-12         8.08        12.12        16.16    1582.5423 
     113            0   -318.53815     5698.724     5698.724     5698.724     5698.724 1.3797066e-11  -0.34317507 7.3059822e-13         8.08        12.12        16.16    1582.5423 
     114            0   -318.53815     5698.724     5698.724     5698.724     5698.724 1.0340775e-11  -0.34317507 1.9669952e-12         8.08        12.12        16.16    1582.5423 
     115            0   -318.53815     5698.724     5698.724     5698.724     5698.724 1.4049966e-12  -0.34317507 8.7109787e-13         8.08        12.12        16.16    1582.5423 
     116            0   -318.53815     5698.724     5698.724     5698.724     5698.724 -1.1801971e-12  -0.34317507 -2.8099931e-13         8.08        12.12        16.16    1582.5423 
     117            0   -318.53815     5698.724     5698.724     5698.724     5698.724 4.5521889e-12  -0.34317507 6.3224846e-12         8.08        12.12        16.16    1582.5423 
     118            0   -318.53815     5698.724     5698.724     5698.724     5698.724 4.4397892e-12  -0.34317507 -7.9241806e-12         8.08        12.12        16.16    1582.5423 
     119            0   -318.53815     5698.724     5698.724     5698.724     5698.724 -9.0481779e-12  -0.34317507 7.4183819e-12         8.08        12.12        16.16    1582.5423 
     120            0   -318.53815     5698.724     5698.724     5698.724     5698.724 -3.4562916e-12  -0.34317507 2.3322943e-12         8.08        12.12        16.16    1582.5423 
     121            0   -318.53815     5698.724     5698.724     5698.724     5698.724 1.5735962e-12  -0.34317507 -6.940683e-12         8.08        12.12        16.16    1582.5423 
     122            0   -318.53815     5698.724     5698.724     5698.724     5698.724 6.1819849e-12  -0.34317507 -8.3456796e-12         8.08        12.12        16.16    1582.5423 
     123            0   -318.53815     5698.724     5698.724     5698.724     5698.724 3.3157919e-12  -0.34317507 4.7488884e-12         8.08        12.12        16.16    1582.5423 
     124            0   -318.53815     5698.724     5698.724     5698.724     5698.724 2.4165941e-12  -0.34317507 -1.3206968e-12         8.08        12.12        16.16    1582.5423 
Loop time of 6.1382 on 28 procs for 24 steps with 96 atoms

96.3% CPU use with 28 MPI tasks x no OpenMP threads

Minimization stats:
  Stopping criterion = force tolerance
  Energy initial, next-to-last, final = 
        -318.538153503      -318.53815352      -318.53815352
  Force two-norm initial, final = 0.000404891 5.68961e-11
  Force max component initial, final = 6.14669e-05 9.50769e-12
  Final line search alpha, max atom move = 1 9.50769e-12
  Iterations, force evaluations = 24 48

MPI task timing breakdown:
Section |  min time  |  avg time  |  max time  |%varavg| %total
---------------------------------------------------------------
Pair    | 1.0755     | 1.0758     | 1.0765     |   0.0 | 17.53
Neigh   | 0          | 0          | 0          |   0.0 |  0.00
Comm    | 1.0709     | 1.0912     | 1.3453     |   6.6 | 17.78
Output  | 1.5182     | 1.5182     | 1.5183     |   0.0 | 24.73
Modify  | 0          | 0          | 0          |   0.0 |  0.00
Other   |            | 2.453      |            |       | 39.96

Nlocal:    3.42857 ave 6 max 1 min
Histogram: 1 0 6 0 7 0 9 0 4 1
Nghost:    388.714 ave 404 max 354 min
Histogram: 8 0 0 0 0 0 0 0 0 20
Neighs:    229.714 ave 393 max 71 min
Histogram: 1 3 3 5 2 3 6 1 3 1

Total # of neighbors = 6432
Ave neighs/atom = 67
Neighbor list builds = 0
Dangerous builds = 0
Reading restart file ...
  restart file = 17 Nov 2016, LAMMPS = 17 Nov 2016
  triclinic box = (-0.04 -0.06 -0.08) to (8.04 12.06 16.08) with tilt (0 0 0)
  2 by 2 by 7 MPI processor grid
  96 atoms
Reading potential file AlCu.eam.alloy with DATE: 2008-10-01
Changing box ...
  triclinic box = (-0.04 -0.06 -0.08) to (8.04 12.06 16.08) with tilt (-1.212e-05 0 0)
Neighbor list info ...
  1 neighbor list requests
  update every 1 steps, delay 0 steps, check yes
  max neighbors/atom: 2000, page size: 100000
  master list distance cutoff = 7.6825
  ghost atom cutoff = 7.6825
Setting up cg style minimization ...
  Unit style    : metal
Memory usage per processor = 3.70903 Mbytes
Step Temp PotEng Press Pxx Pyy Pzz Pxy Pxz Pyz Lx Ly Lz Volume 
     100            0   -318.53815    5698.7241    5698.7241    5698.7241    5698.7241   0.34317277 -3.9023018e-06 3.9601846e-06         8.08        12.12        16.16    1582.5423 
     101            0   -318.53815     5698.724     5698.724     5698.724     5698.724   0.34317495 2.2999693e-07 -6.9893771e-07         8.08        12.12        16.16    1582.5423 
     102            0   -318.53815     5698.724     5698.724     5698.724     5698.724   0.34317519 5.4735069e-08 -1.0839029e-07         8.08        12.12        16.16    1582.5423 
     103            0   -318.53815     5698.724     5698.724     5698.724     5698.724   0.34317514 5.5631513e-08 8.9057112e-09         8.08        12.12        16.16    1582.5423 
     104            0   -318.53815     5698.724     5698.724     5698.724     5698.724   0.34317512 1.1958544e-08 1.4850252e-09         8.08        12.12        16.16    1582.5423 
     105            0   -318.53815     5698.724     5698.724     5698.724     5698.724    0.3431751 -1.0896591e-09 9.2555554e-10         8.08        12.12        16.16    1582.5423 
     106            0   -318.53815     5698.724     5698.724     5698.724     5698.724   0.34317508 -5.2793027e-09 9.9226478e-10         8.08        12.12        16.16    1582.5423 
     107            0   -318.53815     5698.724     5698.724     5698.724     5698.724   0.34317507 -1.719491e-09 1.2046722e-09         8.08        12.12        16.16    1582.5423 
     108            0   -318.53815     5698.724     5698.724     5698.724     5698.724   0.34317507 -1.7787257e-10 1.1366422e-10         8.08        12.12        16.16    1582.5423 
     109            0   -318.53815     5698.724     5698.724     5698.724     5698.724   0.34317507 -1.9726152e-10 -2.453124e-11         8.08        12.12        16.16    1582.5423 
     110            0   -318.53815     5698.724     5698.724     5698.724     5698.724   0.34317507 2.6919734e-11 -5.6199863e-14         8.08        12.12        16.16    1582.5423 
     111            0   -318.53815     5698.724     5698.724     5698.724     5698.724   0.34317507 -2.2479945e-13 -2.2760944e-12         8.08        12.12        16.16    1582.5423 
     112            0   -318.53815     5698.724     5698.724     5698.724     5698.724   0.34317507 2.2479945e-13 2.472794e-12         8.08        12.12        16.16    1582.5423 
     113            0   -318.53815     5698.724     5698.724     5698.724     5698.724   0.34317507 -3.9901903e-12 -2.9785927e-12         8.08        12.12        16.16    1582.5423 
     114            0   -318.53815     5698.724     5698.724     5698.724     5698.724   0.34317507 1.236397e-12 -2.3603942e-12         8.08        12.12        16.16    1582.5423 
     115            0   -318.53815     5698.724     5698.724     5698.724     5698.724   0.34317507 4.2149897e-12 9.5539767e-13         8.08        12.12        16.16    1582.5423 
     116            0   -318.53815     5698.724     5698.724     5698.724     5698.724   0.34317507 7.3059822e-13 -1.0396975e-12         8.08        12.12        16.16    1582.5423 
     117            0   -318.53815     5698.724     5698.724     5698.724     5698.724   0.34317507 3.3157919e-12 7.8679808e-13         8.08        12.12        16.16    1582.5423 
     118            0   -318.53815     5698.724     5698.724     5698.724     5698.724   0.34317507 8.991978e-13 -1.0228375e-11         8.08        12.12        16.16    1582.5423 
     119            0   -318.53815     5698.724     5698.724     5698.724     5698.724   0.34317507 4.2149897e-12 -2.3041944e-12         8.08        12.12        16.16    1582.5423 
     120            0   -318.53815     5698.724     5698.724     5698.724     5698.724   0.34317507 -8.0927802e-12 -1.1801971e-12         8.08        12.12        16.16    1582.5423 
     121            0   -318.53815     5698.724     5698.724     5698.724     5698.724   0.34317507 -1.1127573e-11 1.0621774e-11         8.08        12.12        16.16    1582.5423 
     122            0   -318.53815     5698.724     5698.724     5698.724     5698.724   0.34317507 -5.0579876e-12 -7.5307816e-12         8.08        12.12        16.16    1582.5423 
     123            0   -318.53815     5698.724     5698.724     5698.724     5698.724   0.34317507 -8.3737795e-12 -3.7653908e-12         8.08        12.12        16.16    1582.5423 
     124            0   -318.53815     5698.724     5698.724     5698.724     5698.724   0.34317507 1.5173963e-12 5.1141875e-12         8.08        12.12        16.16    1582.5423 
Loop time of 6.14405 on 28 procs for 24 steps with 96 atoms

96.3% CPU use with 28 MPI tasks x no OpenMP threads

Minimization stats:
  Stopping criterion = force tolerance
  Energy initial, next-to-last, final = 
        -318.538153503      -318.53815352      -318.53815352
  Force two-norm initial, final = 0.000404891 5.68927e-11
  Force max component initial, final = 6.14669e-05 9.5321e-12
  Final line search alpha, max atom move = 1 9.5321e-12
  Iterations, force evaluations = 24 48

MPI task timing breakdown:
Section |  min time  |  avg time  |  max time  |%varavg| %total
---------------------------------------------------------------
Pair    | 1.0772     | 1.0781     | 1.0786     |   0.0 | 17.55
Neigh   | 0          | 0          | 0          |   0.0 |  0.00
Comm    | 1.0786     | 1.0986     | 1.3537     |   6.6 | 17.88
Output  | 1.5148     | 1.5148     | 1.5152     |   0.0 | 24.65
Modify  | 0          | 0          | 0          |   0.0 |  0.00
Other   |            | 2.453      |            |       | 39.92

Nlocal:    3.42857 ave 6 max 1 min
Histogram: 1 0 6 0 7 0 9 0 4 1
Nghost:    388.714 ave 404 max 354 min
Histogram: 8 0 0 0 0 0 0 0 0 20
Neighs:    229.714 ave 393 max 71 min
Histogram: 1 3 3 5 2 3 6 1 3 1

Total # of neighbors = 6432
Ave neighs/atom = 67
Neighbor list builds = 0
Dangerous builds = 0
Reading restart file ...
  restart file = 17 Nov 2016, LAMMPS = 17 Nov 2016
  triclinic box = (-0.04 -0.06 -0.08) to (8.04 12.06 16.08) with tilt (0 0 0)
  2 by 2 by 7 MPI processor grid
  96 atoms
Reading potential file AlCu.eam.alloy with DATE: 2008-10-01
Changing box ...
  triclinic box = (-0.04 -0.06 -0.08) to (8.04 12.06 16.08) with tilt (1.212e-05 0 0)
Neighbor list info ...
  1 neighbor list requests
  update every 1 steps, delay 0 steps, check yes
  max neighbors/atom: 2000, page size: 100000
  master list distance cutoff = 7.6825
  ghost atom cutoff = 7.6825
Setting up cg style minimization ...
  Unit style    : metal
Memory usage per processor = 3.70903 Mbytes
Step Temp PotEng Press Pxx Pyy Pzz Pxy Pxz Pyz Lx Ly Lz Volume 
     100            0   -318.53815    5698.7241    5698.7241    5698.7241    5698.7241  -0.34317737 -3.9022838e-06 3.9601586e-06         8.08        12.12        16.16    1582.5423 
     101            0   -318.53815     5698.724     5698.724     5698.724     5698.724  -0.34317519  2.29989e-07 -6.9891748e-07         8.08        12.12        16.16    1582.5423 
     102            0   -318.53815     5698.724     5698.724     5698.724     5698.724  -0.34317495 5.474541e-08 -1.0839959e-07         8.08        12.12        16.16    1582.5423 
     103            0   -318.53815     5698.724     5698.724     5698.724     5698.724  -0.34317501 5.5628535e-08 8.8886265e-09         8.08        12.12        16.16    1582.5423 
     104            0   -318.53815     5698.724     5698.724     5698.724     5698.724  -0.34317502 1.1973268e-08 1.5057067e-09         8.08        12.12        16.16    1582.5423 
     105            0   -318.53815     5698.724     5698.724     5698.724     5698.724  -0.34317505 -1.0824094e-09 9.2648284e-10         8.08        12.12        16.16    1582.5423 
     106            0   -318.53815     5698.724     5698.724     5698.724     5698.724  -0.34317506 -5.2668825e-09 9.9749136e-10         8.08        12.12        16.16    1582.5423 
     107            0   -318.53815     5698.724     5698.724     5698.724     5698.724  -0.34317507 -1.7153322e-09 1.1851427e-09         8.08        12.12        16.16    1582.5423 
     108            0   -318.53815     5698.724     5698.724     5698.724     5698.724  -0.34317507 -1.6972359e-10 1.1417002e-10         8.08        12.12        16.16    1582.5423 
     109            0   -318.53815     5698.724     5698.724     5698.724     5698.724  -0.34317507 -1.9832932e-10 -2.447504e-11         8.08        12.12        16.16    1582.5423 
     110            0   -318.53815     5698.724     5698.724     5698.724     5698.724  -0.34317507 3.4169517e-11 -1.7140958e-12         8.08        12.12        16.16    1582.5423 
     111            0   -318.53815     5698.724     5698.724     5698.724     5698.724  -0.34317507 -2.472794e-12 4.8893881e-12         8.08        12.12        16.16    1582.5423 
     112            0   -318.53815     5698.724     5698.724     5698.724     5698.724  -0.34317507 3.259592e-12 3.0909924e-12         8.08        12.12        16.16    1582.5423 
     113            0   -318.53815     5698.724     5698.724     5698.724     5698.724  -0.34317507 1.1801971e-11 2.5008939e-12         8.08        12.12        16.16    1582.5423 
     114            0   -318.53815     5698.724     5698.724     5698.724     5698.724  -0.34317507 -4.6645886e-12 9.4977768e-12         8.08        12.12        16.16    1582.5423 
     115            0   -318.53815     5698.724     5698.724     5698.724     5698.724  -0.34317507 -5.9009856e-12 1.6016961e-12         8.08        12.12        16.16    1582.5423 
     116            0   -318.53815     5698.724     5698.724     5698.724     5698.724  -0.34317507 7.9803805e-12 -1.0031675e-11         8.08        12.12        16.16    1582.5423 
     117            0   -318.53815     5698.724     5698.724     5698.724     5698.724  -0.34317507 -1.4049966e-12 -2.3884942e-12         8.08        12.12        16.16    1582.5423 
     118            0   -318.53815     5698.724     5698.724     5698.724     5698.724  -0.34317507 -8.6547789e-12 -1.3206968e-11         8.08        12.12        16.16    1582.5423 
     119            0   -318.53815     5698.724     5698.724     5698.724     5698.724  -0.34317507 -2.6975934e-12 -3.3719918e-13         8.08        12.12        16.16    1582.5423 
     120            0   -318.53815     5698.724     5698.724     5698.724     5698.724  -0.34317507 1.9107953e-12 -4.6364887e-12         8.08        12.12        16.16    1582.5423 
     121            0   -318.53815     5698.724     5698.724     5698.724     5698.724  -0.34317507 -2.0231951e-12 -3.0066927e-12         8.08        12.12        16.16    1582.5423 
     122            0   -318.53815     5698.724     5698.724     5698.724     5698.724  -0.34317507 -1.1464772e-11 2.9785927e-12         8.08        12.12        16.16    1582.5423 
     123            0   -318.53815     5698.724     5698.724     5698.724     5698.724  -0.34317507 3.9339904e-13 2.8380931e-12         8.08        12.12        16.16    1582.5423 
     124            0   -318.53815     5698.724     5698.724     5698.724     5698.724  -0.34317507 1.9669952e-12 -1.7983956e-12         8.08        12.12        16.16    1582.5423 
Loop time of 6.14319 on 28 procs for 24 steps with 96 atoms

96.3% CPU use with 28 MPI tasks x no OpenMP threads

Minimization stats:
  Stopping criterion = force tolerance
  Energy initial, next-to-last, final = 
        -318.538153503      -318.53815352      -318.53815352
  Force two-norm initial, final = 0.000404891 5.68903e-11
  Force max component initial, final = 6.14669e-05 9.57303e-12
  Final line search alpha, max atom move = 1 9.57303e-12
  Iterations, force evaluations = 24 48

MPI task timing breakdown:
Section |  min time  |  avg time  |  max time  |%varavg| %total
---------------------------------------------------------------
Pair    | 1.076      | 1.0763     | 1.0766     |   0.0 | 17.52
Neigh   | 0          | 0          | 0          |   0.0 |  0.00
Comm    | 1.0758     | 1.0974     | 1.3527     |   6.6 | 17.86
Output  | 1.5182     | 1.5182     | 1.5188     |   0.0 | 24.71
Modify  | 0          | 0          | 0          |   0.0 |  0.00
Other   |            | 2.451      |            |       | 39.90

Nlocal:    3.42857 ave 6 max 1 min
Histogram: 1 0 6 0 7 0 9 0 4 1
Nghost:    388.714 ave 404 max 354 min
Histogram: 8 0 0 0 0 0 0 0 0 20
Neighs:    229.714 ave 393 max 71 min
Histogram: 1 3 3 5 2 3 6 1 3 1

Total # of neighbors = 6432
Ave neighs/atom = 67
Neighbor list builds = 0
Dangerous builds = 0
=========================================
Components of the Elastic Constant Tensor
=========================================
Elastic Constant C11all = 93.5204377184618 GPa
Elastic Constant C22all = 93.5204377075024 GPa
Elastic Constant C33all = 93.5204377219634 GPa
Elastic Constant C12all = 73.5392021515054 GPa
Elastic Constant C13all = 73.539202157508 GPa
Elastic Constant C23all = 73.5392021540065 GPa
Elastic Constant C44all = 34.3175071535721 GPa
Elastic Constant C55all = 34.3175071539415 GPa
Elastic Constant C66all = 34.3175071543236 GPa
Elastic Constant C14all = 9.72344153493187e-10 GPa
Elastic Constant C15all = -7.7275096418651e-11 GPa
Elastic Constant C16all = 7.94590919137223e-10 GPa
Elastic Constant C24all = 2.4587617660722e-11 GPa
Elastic Constant C25all = 3.38625201507246e-10 GPa
Elastic Constant C26all = 3.73048574926077e-10 GPa
Elastic Constant C34all = 1.36328329117237e-10 GPa
Elastic Constant C35all = 7.8684154872158e-10 GPa
Elastic Constant C36all = -9.1324404553775e-12 GPa
Elastic Constant C45all = -1.1239972538803e-10 GPa
Elastic Constant C46all = 2.45874399286316e-10 GPa
Elastic Constant C56all = -3.0207426198033e-11 GPa
=========================================
Average properties for a cubic crystal
=========================================
Bulk Modulus = 80.1996140082186 GPa
Shear Modulus 1 = 34.3175071539457 GPa
Shear Modulus 2 = 9.99061778081795 GPa
Poisson Ratio = 0.440197298470334
Total wall time: 0:01:49
