LAMMPS (17 Nov 2016)
# Affiliation: Dept. Materials Science and Engineering
# University of Arizona
# Abduljabar Alsayoud


# Units energy:eV time:ps distance:angstrom flux:energy*velocity
#---------Sim variables---------------
variable fileprefix string  nve
variable temp_s equal '300.0'
variable press_s equal '0.0'


#-----------Setup----------------------
units metal            #Energy = eV , Distance= Angstroms
dimension 3
boundary p p p         #Periodic boundary conditions
atom_style atomic

# Read config files

read_data AlNVTfinal.data
  orthogonal box = (-16.4064 -16.4064 -16.4064) to (24.4562 24.4562 24.4562)
  2 by 2 by 7 MPI processor grid
  reading atoms ...
  4000 atoms

pair_style eam/alloy
pair_coeff * *  AlCu.eam.alloy Al
Reading potential file AlCu.eam.alloy with DATE: 2008-10-01
neighbor 2.0 bin
neigh_modify delay 10 check yes


#--------- NPT-------
reset_timestep 0
timestep 0.001

thermo 1000


thermo_style custom step pe ke etotal enthalpy temp vol press

velocity all create ${temp_s} 1518772
velocity all create 300 1518772


fix 1 all nve
dump 2 all atom 2000 dump.nve${fileprefix}
dump 2 all atom 2000 dump.nvenve
compute 3 all vacf
fix 4 all ave/time 2 1 2 c_3[1] c_3[2] c_3[3] c_3[4]  file ${fileprefix}.data
fix 4 all ave/time 2 1 2 c_3[1] c_3[2] c_3[3] c_3[4]  file nve.data
run 60000
Neighbor list info ...
  1 neighbor list requests
  update every 1 steps, delay 10 steps, check yes
  max neighbors/atom: 2000, page size: 100000
  master list distance cutoff = 8.6825
  ghost atom cutoff = 8.6825
  binsize = 4.34125 -> bins = 10 10 10
Memory usage per processor = 4.05396 Mbytes
Step PotEng KinEng TotEng Enthalpy Temp Volume Press 
       0   -13110.132     155.0734   -12955.059   -12975.607          300    68230.709     -482.493 
    1000     -13106.7    151.64385   -12955.056   -12961.241    293.36532    68230.709   -145.22338 
    2000   -13110.759    155.70466   -12955.055   -12976.837    301.22122    68230.709    -511.4792 
    3000   -13109.091    154.03265   -12955.058   -12970.009    297.98661    68230.709   -351.06183 
    4000   -13111.746    156.66042   -12955.086   -12981.579    303.07021    68230.709   -622.11273 
    5000   -13111.538    156.46646   -12955.072   -12979.775    302.69498    68230.709   -580.08134 
    6000   -13110.662    155.59106   -12955.071   -12975.345    301.00145    68230.709   -476.07815 
    7000   -13109.063    153.98962   -12955.074   -12967.514    297.90336    68230.709   -292.12269 
    8000    -13110.74    155.66976   -12955.071   -12977.021     301.1537    68230.709   -515.43095 
    9000   -13109.134    154.07587   -12955.058   -12971.358    298.07021    68230.709   -382.75314 
   10000   -13110.879     155.8238   -12955.055   -12975.974    301.45172    68230.709   -491.20096 
   11000   -13109.838    154.78916   -12955.049   -12974.247    299.45012    68230.709   -450.81523 
   12000   -13111.741     156.6672   -12955.074   -12981.524    303.08332    68230.709   -621.08653 
   13000   -13110.411    155.34382   -12955.067   -12977.729    300.52316    68230.709   -532.12571 
   14000   -13109.215    154.15924   -12955.056   -12970.914     298.2315    68230.709   -372.37276 
   15000   -13110.508    155.44991   -12955.058   -12977.573    300.72839    68230.709   -528.67522 
   16000    -13111.99    156.92801   -12955.062   -12981.382    303.58788    68230.709   -618.02021 
   17000   -13108.711    153.66006   -12955.051   -12969.232     297.2658    68230.709    -332.9845 
   18000   -13112.771     157.6849   -12955.086   -12984.393    305.05214    68230.709   -688.18847 
   19000   -13108.343    153.26532   -12955.078    -12967.03    296.50215    68230.709   -280.65895 
   20000   -13111.018    155.95112   -12955.067   -12980.448    301.69802    68230.709    -595.9973 
   21000   -13109.908     154.8422   -12955.066   -12972.427    299.55274    68230.709   -407.67309 
   22000   -13108.484    153.42853   -12955.055   -12969.353    296.81789    68230.709   -335.72857 
   23000   -13110.471    155.41429   -12955.056   -12974.892    300.65948    68230.709   -465.78023 
   24000   -13110.992    155.91422   -12955.078   -12979.084    301.62664    68230.709   -563.71745 
   25000   -13107.741    152.68537   -12955.055   -12964.973     295.3802    68230.709    -232.8843 
   26000   -13108.358    153.30139   -12955.057   -12967.845    296.57193    68230.709   -300.27669 
   27000   -13108.381    153.32352   -12955.057    -12969.17    296.61475    68230.709   -331.40111 
   28000   -13109.634    154.57388    -12955.06   -12972.054    299.03364    68230.709   -399.04893 
   29000   -13108.541    153.48638   -12955.055   -12970.173    296.92981    68230.709   -354.98927 
   30000   -13107.247    152.19721    -12955.05   -12964.689    294.43583    68230.709    -226.3463 
   31000   -13107.334    152.28119   -12955.053   -12963.843    294.59829    68230.709   -206.40976 
   32000    -13109.12    154.06743   -12955.053   -12968.029    298.05389    68230.709   -304.69777 
   33000   -13109.714    154.65708   -12955.057   -12972.105     299.1946    68230.709   -400.31999 
   34000   -13111.602    156.53484   -12955.068   -12979.865    302.82727    68230.709   -582.29811 
   35000   -13108.558    153.49039   -12955.067   -12968.148    296.93757    68230.709   -307.16357 
   36000   -13107.786    152.72392   -12955.062   -12964.196    295.45478    68230.709   -214.48391 
   37000    -13110.09    155.01448   -12955.076   -12973.861    299.88603    68230.709   -441.11343 
   38000   -13110.967    155.89758    -12955.07   -12976.788    301.59444    68230.709   -509.97891 
   39000   -13107.937    152.87416   -12955.063   -12965.678    295.74544    68230.709   -249.27108 
   40000   -13109.634    154.56528   -12955.069   -12971.959    299.01702    68230.709   -396.61596 
   41000   -13108.996    153.92039   -12955.075   -12969.742    297.76944    68230.709    -344.4016 
   42000   -13109.745     154.6878   -12955.057   -12973.644    299.25404    68230.709   -436.44764 
   43000   -13110.808    155.72917   -12955.079   -12977.891    301.26864    68230.709   -535.65604 
   44000   -13110.221    155.15717   -12955.063   -12974.112    300.16207    68230.709   -447.29407 
   45000   -13110.241    155.15275   -12955.088   -12973.351    300.15352    68230.709   -428.85379 
   46000   -13108.511     153.4428   -12955.068   -12968.123     296.8455    68230.709    -306.5517 
   47000   -13110.935    155.87992   -12955.055   -12975.979    301.56028    68230.709   -491.32368 
   48000   -13106.852    151.78656   -12955.066   -12961.461    293.64139    68230.709    -150.1704 
   49000   -13106.388    151.32201   -12955.066   -12959.514    292.74269    68230.709   -104.44926 
   50000   -13109.227    154.17017   -12955.056   -12970.661    298.25264    68230.709   -366.42024 
   51000   -13110.687    155.60937   -12955.077   -12977.475    301.03688    68230.709   -525.92773 
   52000   -13105.188    150.12792    -12955.06   -12955.215    290.43264    68230.709   -3.6280039 
   53000   -13110.743    155.67342   -12955.069   -12977.861    301.16079    68230.709   -535.18172 
   54000     -13109.7    154.62467   -12955.075   -12973.962    299.13191    68230.709   -443.48861 
   55000   -13108.791    153.71998   -12955.071   -12967.848    297.38173    68230.709   -300.02913 
   56000   -13108.041    152.96765   -12955.073   -12966.312    295.92628    68230.709   -263.91809 
   57000   -13111.053    155.97745   -12955.075   -12978.328    301.74896    68230.709   -546.01463 
   58000   -13109.865    154.79704   -12955.068   -12974.158    299.46538    68230.709   -448.26402 
   59000   -13107.477    152.41492   -12955.062    -12965.13      294.857    68230.709   -236.40098 
   60000   -13109.744    154.66412    -12955.08   -12973.786    299.20824    68230.709   -439.25442 
Loop time of 5014.25 on 28 procs for 60000 steps with 4000 atoms

Performance: 1.034 ns/day, 23.214 hours/ns, 11.966 timesteps/s
96.3% CPU use with 28 MPI tasks x no OpenMP threads

MPI task timing breakdown:
Section |  min time  |  avg time  |  max time  |%varavg| %total
---------------------------------------------------------------
Pair    | 1124.8     | 1890.4     | 1989.3     | 368.2 | 37.70
Neigh   | 0.0014589  | 0.0017307  | 0.0019271  |   0.3 |  0.00
Comm    | 1823.6     | 1982.5     | 2752.2     | 379.3 | 39.54
Output  | 4.822      | 4.8627     | 4.9285     |   1.0 |  0.10
Modify  | 312.07     | 389.86     | 450.18     | 148.7 |  7.78
Other   |            | 746.7      |            |       | 14.89

Nlocal:    142.857 ave 160 max 120 min
Histogram: 4 2 0 2 0 1 5 6 5 3
Nghost:    1907.68 ave 2039 max 1826 min
Histogram: 12 0 5 3 0 0 0 0 0 8
Neighs:    11354 ave 13518 max 9561 min
Histogram: 6 0 1 3 4 4 5 3 1 1

Total # of neighbors = 317911
Ave neighs/atom = 79.4778
Neighbor list builds = 4
Dangerous builds = 0
unfix 1
undump 2
unfix 4

######################################
# SIMULATION DONE
print "All done"
All done
Total wall time: 1:23:35
