LAMMPS data file via write_data, version 17 Nov 2016, timestep = 91

2 atoms
1 atom types

2.3437180278018697e-02 3.2425491434328841e+00 xlo xhi
2.3437180278018697e-02 3.2425491434328841e+00 ylo yhi
2.3437180278018697e-02 3.2425491434328841e+00 zlo zhi

Masses

1 26.982

Atoms # atomic

1 1 2.0430690652824354e-01 2.0430690652824351e-01 2.0430690652824343e-01 0 0 0
2 1 1.8138628876824119e+00 1.8138628876824119e+00 1.8138628876824119e+00 0 0 0

Velocities

1 0.0000000000000000e+00 0.0000000000000000e+00 0.0000000000000000e+00
2 0.0000000000000000e+00 0.0000000000000000e+00 0.0000000000000000e+00
