diamond Si                              
   5.50000000000000     
    -0.000000    0.485003    0.485003
     0.485003   -0.000000    0.485003
     0.485003    0.485003   -0.000000
   Si
     2
Direct
  0.875000  0.875000  0.875000
  0.125000  0.125000  0.125000
 
   32   32   32
  22.432      22.404      22.268      21.880      21.005      19.602      17.969      16.641      16.128      16.641    
  17.969      19.602      21.005      21.880      22.269      22.405      22.433      22.405      22.269      21.880    
  21.005      19.602      17.969      16.641      16.128      16.641      17.969      19.602      21.005      21.880    
  22.268      22.404      22.404      22.771      22.836      22.215      20.710      18.559      16.414      15.069    
  15.069      16.414      18.559      20.710      22.215      22.836      22.772      22.405      21.935      21.427    
  20.846      20.115      19.144      17.981      16.886      16.214      16.213      16.886      17.981      19.145    
  20.115      20.846      21.426      21.934      22.268      22.836      22.635      21.267      18.804      15.880    
  13.499      12.581      13.499      15.880      18.804      21.267      22.635      22.837      22.269      21.427    
  20.524      19.631      18.733      17.801      16.847      15.951      15.289      15.043      15.289      15.951    
  16.847      17.801      18.733      19.631      20.524      21.426      21.880      22.215      21.267      18.863    
  15.469      12.127      10.048      10.048      12.127      15.469      18.863      21.267      22.215      21.880    
  20.846      19.631      18.422      17.286      16.227      15.244      14.379      13.714      13.349      13.348    
  13.714      14.379      15.245      16.227      17.286      18.422      19.631      20.846      21.005      20.710    
  18.804      15.469      11.585      8.4567      7.2566      8.4564      11.585      15.469      18.804      20.710    
  21.006      20.115      18.733      17.286      15.920      14.691      13.613      12.700      11.987      11.527    
  11.367      11.527      11.987      12.700      13.613      14.691      15.920      17.286      18.733      20.115    
  19.602      18.559      15.880      12.127      8.4567      6.1848      6.1847      8.4565      12.127      15.880    
  18.559      19.603      19.145      17.801      16.227      14.691      13.303      12.108      11.117      10.342    
  9.8048      9.5283      9.5282      9.8047      10.342      11.116      12.107      13.303      14.691      16.227    
  17.801      19.145      17.969      16.414      13.499      10.048      7.2566      6.1847      7.2566      10.049    
  13.500      16.414      17.969      17.981      16.847      15.245      13.613      12.108      10.803      9.7255    
  8.8815      8.2730      7.9046      7.7811      7.9046      8.2730      8.8814      9.7254      10.803      12.107    
  13.613      15.245      16.847      17.981      16.641      15.069      12.581      10.048      8.4564      8.4565    
  10.049      12.582      15.070      16.641      16.886      15.951      14.379      12.700      11.117      9.7256    
  8.5694      7.6569      6.9824      6.5378      6.3171      6.3172      6.5378      6.9823      7.6568      8.5693    
  9.7254      11.116      12.700      14.379      15.951      16.886      16.128      15.069      13.499      12.127    
  11.585      12.127      13.500      15.070      16.129      16.214      15.289      13.714      11.987      10.342    
  8.8816      7.6569      6.6816      5.9475      5.4389      5.1405      5.0423      5.1406      5.4390      5.9476    
  6.6816      7.6568      8.8814      10.342      11.987      13.714      15.289      16.213      16.641      16.414    
  15.880      15.469      15.469      15.880      16.414      16.641      16.214      15.043      13.349      11.527    
  9.8046      8.2730      6.9824      5.9476      5.1588      4.5948      4.2333      4.0572      4.0572      4.2335    
  4.5950      5.1589      5.9476      6.9823      8.2730      9.8047      11.527      13.348      15.043      16.214    
  17.969      18.559      18.804      18.863      18.804      18.559      17.969      16.886      15.289      13.349    
  11.367      9.5281      7.9045      6.5378      5.4389      4.5949      3.9796      3.5644      3.3253      3.2474    
  3.3254      3.5645      3.9798      4.5950      5.4390      6.5378      7.9046      9.5282      11.367      13.349    
  15.289      16.886      19.602      20.710      21.267      21.267      20.710      19.603      17.981      15.951    
  13.714      11.527      9.5281      7.7810      6.3170      5.1405      4.2334      3.5645      3.0987      2.8058    
  2.6647      2.6647      2.8059      3.0988      3.5645      4.2335      5.1406      6.3172      7.7811      9.5283    
  11.527      13.714      15.951      17.981      21.005      22.215      22.635      22.215      21.006      19.145    
  16.847      14.379      11.987      9.8046      7.9045      6.3170      5.0422      4.0572      3.3255      2.8059    
  2.4619      2.2662      2.2027      2.2662      2.4619      2.8059      3.3254      4.0572      5.0423      6.3171    
  7.9046      9.8048      11.987      14.379      16.847      19.144      21.880      22.836      22.837      21.880    
  20.115      17.801      15.245      12.700      10.342      8.2730      6.5378      5.1405      4.0572      3.2475    
  2.6648      2.2663      2.0185      1.8997      1.8996      2.0184      2.2662      2.6647      3.2474      4.0572    
  5.1405      6.5378      8.2730      10.342      12.700      15.244      17.801      20.115      22.269      22.772    
  22.269      20.846      18.733      16.227      13.613      11.117      8.8816      6.9824      5.4389      4.2334    
  3.3255      2.6648      2.2029      1.8998      1.7281      1.6724      1.7280      1.8996      2.2027      2.6647    
  3.3253      4.2333      5.4389      6.9824      8.8815      11.117      13.613      16.227      18.733      20.846    
  22.405      22.405      21.427      19.631      17.286      14.691      12.108      9.7256      7.6569      5.9476    
  4.5949      3.5645      2.8059      2.2663      1.8998      1.6725      1.5636      1.5636      1.6724      1.8997    
  2.2662      2.8058      3.5644      4.5948      5.9475      7.6569      9.7255      12.108      14.691      17.286    
  19.631      21.427      22.433      21.935      20.524      18.422      15.920      13.303      10.803      8.5694    
  6.6816      5.1588      3.9796      3.0987      2.4619      2.0185      1.7281      1.5636      1.5104      1.5636    
  1.7281      2.0185      2.4619      3.0987      3.9796      5.1588      6.6816      8.5694      10.803      13.303    
  15.920      18.422      20.524      21.935      22.405      21.427      19.631      17.286      14.691      12.108    
  9.7255      7.6569      5.9475      4.5948      3.5644      2.8058      2.2662      1.8997      1.6724      1.5636    
  1.5636      1.6725      1.8998      2.2663      2.8059      3.5645      4.5949      5.9476      7.6569      9.7256    
  12.108      14.691      17.286      19.631      21.427      22.405      22.269      20.846      18.733      16.227    
  13.613      11.117      8.8815      6.9824      5.4389      4.2333      3.3253      2.6647      2.2027      1.8996    
  1.7280      1.6724      1.7281      1.8998      2.2029      2.6648      3.3255      4.2334      5.4389      6.9824    
  8.8816      11.117      13.613      16.227      18.733      20.846      22.269      22.772      21.880      20.115    
  17.801      15.244      12.700      10.342      8.2730      6.5378      5.1405      4.0572      3.2474      2.6647    
  2.2662      2.0184      1.8996      1.8997      2.0185      2.2663      2.6648      3.2475      4.0572      5.1405    
  6.5378      8.2730      10.342      12.700      15.245      17.801      20.115      21.880      22.837      22.836    
  21.005      19.144      16.847      14.379      11.987      9.8048      7.9046      6.3171      5.0423      4.0572    
  3.3254      2.8059      2.4619      2.2662      2.2027      2.2662      2.4619      2.8059      3.3255      4.0572    
  5.0422      6.3170      7.9045      9.8046      11.987      14.379      16.847      19.145      21.006      22.215    
  22.635      22.215      19.602      17.981      15.951      13.714      11.527      9.5283      7.7811      6.3172    
  5.1406      4.2335      3.5645      3.0988      2.8059      2.6647      2.6647      2.8058      3.0987      3.5645    
  4.2334      5.1405      6.3170      7.7810      9.5281      11.527      13.714      15.951      17.981      19.603    
  20.710      21.267      21.267      20.710      17.969      16.886      15.289      13.349      11.367      9.5282    
  7.9046      6.5378      5.4390      4.5950      3.9798      3.5645      3.3254      3.2474      3.3253      3.5644    
  3.9796      4.5949      5.4389      6.5378      7.9045      9.5281      11.367      13.349      15.289      16.886    
  17.969      18.559      18.804      18.863      18.804      18.559      16.641      16.214      15.043      13.348    
  11.527      9.8047      8.2730      6.9823      5.9476      5.1589      4.5950      4.2335      4.0572      4.0572    
  4.2333      4.5948      5.1588      5.9476      6.9824      8.2730      9.8046      11.527      13.349      15.043    
  16.214      16.641      16.414      15.880      15.469      15.469      15.880      16.414      16.128      16.213    
  15.289      13.714      11.987      10.342      8.8814      7.6568      6.6816      5.9476      5.4390      5.1406    
  5.0423      5.1405      5.4389      5.9475      6.6816      7.6569      8.8816      10.342      11.987      13.714    
  15.289      16.214      16.129      15.070      13.500      12.127      11.585      12.127      13.499      15.069    
  16.641      16.886      15.951      14.379      12.700      11.116      9.7254      8.5693      7.6568      6.9823    
  6.5378      6.3172      6.3171      6.5378      6.9824      7.6569      8.5694      9.7256      11.117      12.700    
  14.379      15.951      16.886      16.641      15.070      12.582      10.049      8.4565      8.4564      10.048    
  12.581      15.069      17.969      17.981      16.847      15.245      13.613      12.107      10.803      9.7254    
  8.8814      8.2730      7.9046      7.7811      7.9046      8.2730      8.8815      9.7255      10.803      12.108    
  13.613      15.245      16.847      17.981      17.969      16.414      13.500      10.049      7.2566      6.1847    
  7.2566      10.048      13.499      16.414      19.602      19.145      17.801      16.227      14.691      13.303    
  12.107      11.116      10.342      9.8047      9.5282      9.5283      9.8048      10.342      11.117      12.108    
  13.303      14.691      16.227      17.801      19.145      19.603      18.559      15.880      12.127      8.4565    
  6.1847      6.1848      8.4567      12.127      15.880      18.559      21.005      20.115      18.733      17.286    
  15.920      14.691      13.613      12.700      11.987      11.527      11.367      11.527      11.987      12.700    
  13.613      14.691      15.920      17.286      18.733      20.115      21.006      20.710      18.804      15.469    
  11.585      8.4564      7.2566      8.4567      11.585      15.469      18.804      20.710      21.880      20.846    
  19.631      18.422      17.286      16.227      15.245      14.379      13.714      13.348      13.349      13.714    
  14.379      15.244      16.227      17.286      18.422      19.631      20.846      21.880      22.215      21.267    
  18.863      15.469      12.127      10.048      10.048      12.127      15.469      18.863      21.267      22.215    
  22.268      21.426      20.524      19.631      18.733      17.801      16.847      15.951      15.289      15.043    
  15.289      15.951      16.847      17.801      18.733      19.631      20.524      21.427      22.269      22.837    
  22.635      21.267      18.804      15.880      13.499      12.581      13.499      15.880      18.804      21.267    
  22.635      22.836      22.404      21.934      21.426      20.846      20.115      19.145      17.981      16.886    
  16.213      16.214      16.886      17.981      19.144      20.115      20.846      21.427      21.935      22.405    
  22.772      22.836      22.215      20.710      18.559      16.414      15.069      15.069      16.414      18.559    
  20.710      22.215      22.836      22.771      22.404      22.771      22.836      22.215      20.710      18.559    
  16.414      15.070      15.069      16.414      18.559      20.710      22.215      22.836      22.772      22.405    
  21.935      21.427      20.846      20.115      19.145      17.981      16.886      16.213      16.213      16.886    
  17.981      19.144      20.115      20.846      21.427      21.935      22.771      23.341      23.085      21.597    
  18.959      15.848      13.320      12.347      13.320      15.847      18.959      21.597      23.086      23.341    
  22.772      21.907      20.981      20.066      19.146      18.187      17.198      16.263      15.569      15.310    
  15.568      16.263      17.198      18.187      19.146      20.066      20.981      21.906      22.836      23.085    
  21.895      19.098      15.230      11.453      9.1136      9.1136      11.453      15.230      19.098      21.895    
  23.086      22.836      21.773      20.496      19.228      18.037      16.925      15.889      14.969      14.259    
  13.865      13.865      14.259      14.969      15.889      16.925      18.038      19.229      20.496      21.772    
  22.215      21.597      19.098      14.970      10.261      6.5041      5.0683      6.5041      10.262      14.970    
  19.098      21.597      22.215      21.401      19.943      18.396      16.935      15.621      14.464      13.478    
  12.703      12.201      12.026      12.201      12.703      13.478      14.465      15.621      16.936      18.396    
  19.943      21.401      20.710      18.959      15.230      10.261      5.5043      2.5872      2.5873      5.5045    
  10.262      15.230      18.959      20.710      20.579      19.255      17.563      15.899      14.393      13.091    
  12.008      11.157      10.562      10.255      10.255      10.562      11.157      12.008      13.092      14.393    
  15.899      17.563      19.255      20.579      18.559      15.848      11.453      6.5041      2.5872      1.0967    
  2.5874      6.5043      11.453      15.848      18.559      19.261      18.370      16.705      14.938      13.291    
  11.858      10.669      9.7339      9.0555      8.6427      8.5039      8.6427      9.0555      9.7339      10.669    
  11.857      13.291      14.938      16.705      18.370      19.261      16.414      13.320      9.1136      5.0683    
  2.5873      2.5874      5.0686      9.1140      13.320      16.414      17.724      17.325      15.844      14.055    
  12.331      10.799      9.5180      8.5013      7.7460      7.2457      6.9965      6.9965      7.2458      7.7460    
  8.5013      9.5178      10.799      12.331      14.055      15.844      17.325      17.724      15.070      12.347    
  9.1136      6.5041      5.5045      6.5043      9.1140      12.347      15.070      16.472      16.345      15.056    
  13.287      11.526      9.9288      8.5737      7.4862      6.6630      6.0897      5.7523      5.6409      5.7523    
  6.0898      6.6630      7.4862      8.5736      9.9285      11.525      13.287      15.056      16.345      16.472    
  15.069      13.320      11.453      10.262      10.262      11.453      13.320      15.070      15.989      15.745    
  14.482      12.704      10.904      9.2549      7.8395      6.6911      5.8088      5.1745      4.7663      4.5669    
  4.5670      4.7664      5.1746      5.8088      6.6910      7.8394      9.2547      10.904      12.704      14.482    
  15.744      15.989      16.414      15.847      15.230      14.970      15.230      15.848      16.414      16.472    
  15.745      14.269      12.386      10.507      8.7918      7.3144      6.1075      5.1707      4.4830      4.0168    
  3.7478      3.6599      3.7479      4.0170      4.4832      5.1708      6.1075      7.3144      8.7918      10.507    
  12.386      14.269      15.744      16.472      18.559      18.959      19.098      19.098      18.959      18.559    
  17.724      16.345      14.482      12.386      10.370      8.5551      6.9986      5.7253      4.7311      3.9918    
  3.4745      3.1482      2.9907      2.9908      3.1483      3.4746      3.9919      4.7312      5.7254      6.9987    
  8.5552      10.370      12.386      14.482      16.345      17.724      20.710      21.597      21.895      21.597    
  20.710      19.261      17.325      15.056      12.704      10.507      8.5551      6.8932      5.5364      4.4744    
  3.6783      3.1101      2.7327      2.5177      2.4479      2.5177      2.7327      3.1101      3.6784      4.4745    
  5.5365      6.8934      8.5553      10.507      12.704      15.056      17.325      19.261      22.215      23.086    
  23.086      22.215      20.579      18.370      15.844      13.287      10.904      8.7918      6.9986      5.5364    
  4.3901      3.5260      2.9009      2.4721      2.2052      2.0772      2.0772      2.2051      2.4720      2.9008    
  3.5260      4.3901      5.5365      6.9988      8.7919      10.904      13.287      15.844      18.370      20.579    
  22.836      23.341      22.836      21.401      19.255      16.705      14.055      11.526      9.2549      7.3144    
  5.7253      4.4744      3.5260      2.8327      2.3467      2.0276      1.8468      1.7882      1.8467      2.0274    
  2.3465      2.8326      3.5259      4.4744      5.7253      7.3144      9.2550      11.525      14.055      16.705    
  19.255      21.401      22.772      22.772      21.773      19.943      17.563      14.938      12.331      9.9288    
  7.8395      6.1075      4.7311      3.6783      2.9009      2.3467      1.9700      1.7363      1.6245      1.6244    
  1.7362      1.9698      2.3465      2.9007      3.6782      4.7311      6.1075      7.8395      9.9287      12.331    
  14.938      17.563      19.943      21.773      22.405      21.907      20.496      18.396      15.899      13.291    
  10.799      8.5737      6.6911      5.1707      3.9918      3.1101      2.4721      2.0276      1.7363      1.5714    
  1.5180      1.5714      1.7363      2.0275      2.4720      3.1100      3.9917      5.1706      6.6910      8.5737    
  10.799      13.291      15.899      18.396      20.496      21.907      21.935      20.981      19.228      16.935    
  14.393      11.858      9.5180      7.4862      5.8088      4.4830      3.4745      2.7327      2.2052      1.8468    
  1.6245      1.5180      1.5180      1.6245      1.8469      2.2053      2.7327      3.4744      4.4830      5.8087    
  7.4862      9.5180      11.858      14.393      16.935      19.228      20.981      21.935      21.427      20.066    
  18.037      15.621      13.091      10.669      8.5013      6.6630      5.1745      4.0168      3.1482      2.5177    
  2.0772      1.7882      1.6244      1.5714      1.6245      1.7883      2.0774      2.5179      3.1483      4.0169    
  5.1745      6.6630      8.5014      10.670      13.092      15.621      18.038      20.066      21.427      21.907    
  20.846      19.146      16.925      14.464      12.008      9.7339      7.7460      6.0897      4.7663      3.7478    
  2.9907      2.4479      2.0772      1.8467      1.7362      1.7363      1.8469      2.0774      2.4481      2.9909    
  3.7479      4.7664      6.0898      7.7460      9.7340      12.009      14.465      16.925      19.146      20.846    
  21.773      21.773      20.115      18.187      15.889      13.478      11.157      9.0555      7.2457      5.7523    
  4.5669      3.6599      2.9908      2.5177      2.2051      2.0274      1.9698      2.0275      2.2053      2.5179    
  2.9909      3.6600      4.5669      5.7523      7.2457      9.0555      11.157      13.479      15.889      18.187    
  20.115      21.401      21.853      21.401      19.145      17.198      14.969      12.703      10.562      8.6427    
  6.9965      5.6409      4.5670      3.7479      3.1483      2.7327      2.4720      2.3465      2.3465      2.4720    
  2.7327      3.1483      3.7479      4.5669      5.6409      6.9964      8.6426      10.562      12.703      14.970    
  17.199      19.145      20.580      21.340      21.340      20.579      17.981      16.263      14.259      12.201    
  10.255      8.5039      6.9965      5.7523      4.7664      4.0170      3.4746      3.1101      2.9008      2.8326    
  2.9007      3.1100      3.4744      4.0169      4.7664      5.7523      6.9964      8.5038      10.255      12.201    
  14.259      16.263      17.981      19.261      20.038      20.297      20.038      19.261      16.886      15.569    
  13.865      12.026      10.255      8.6427      7.2458      6.0898      5.1746      4.4832      3.9919      3.6784    
  3.5260      3.5259      3.6782      3.9917      4.4830      5.1745      6.0898      7.2457      8.6426      10.255    
  12.026      13.865      15.569      16.886      17.724      18.149      18.306      18.306      18.149      17.724    
  16.213      15.310      13.865      12.201      10.562      9.0555      7.7460      6.6630      5.8088      5.1708    
  4.7312      4.4745      4.3901      4.4744      4.7311      5.1706      5.8087      6.6630      7.7460      9.0555    
  10.562      12.201      13.865      15.310      16.214      16.472      16.252      15.895      15.731      15.895    
  16.252      16.472      16.213      15.568      14.259      12.703      11.157      9.7339      8.5013      7.4862    
  6.6910      6.1075      5.7254      5.5365      5.5365      5.7253      6.1075      6.6910      7.4862      8.5014    
  9.7340      11.157      12.703      14.259      15.569      16.214      15.989      15.060      13.914      13.142    
  13.142      13.913      15.059      15.989      16.886      16.263      14.969      13.478      12.008      10.669    
  9.5178      8.5736      7.8394      7.3144      6.9987      6.8934      6.9988      7.3144      7.8395      8.5737    
  9.5180      10.670      12.009      13.479      14.970      16.263      16.886      16.472      15.060      13.147    
  11.516      10.878      11.516      13.147      15.060      16.472      17.981      17.198      15.889      14.465    
  13.092      11.857      10.799      9.9285      9.2547      8.7918      8.5552      8.5553      8.7919      9.2550    
  9.9287      10.799      11.858      13.092      14.465      15.889      17.199      17.981      17.724      16.252    
  13.914      11.516      10.002      10.002      11.516      13.914      16.252      17.724      19.144      18.187    
  16.925      15.621      14.393      13.291      12.331      11.525      10.904      10.507      10.370      10.507    
  10.904      11.525      12.331      13.291      14.393      15.621      16.925      18.187      19.145      19.261    
  18.149      15.895      13.142      10.878      10.002      10.878      13.142      15.895      18.149      19.261    
  20.115      19.146      18.038      16.936      15.899      14.938      14.055      13.287      12.704      12.386    
  12.386      12.704      13.287      14.055      14.938      15.899      16.935      18.038      19.146      20.115    
  20.580      20.038      18.306      15.731      13.142      11.516      11.516      13.142      15.732      18.306    
  20.038      20.579      20.846      20.066      19.229      18.396      17.563      16.705      15.844      15.056    
  14.482      14.269      14.482      15.056      15.844      16.705      17.563      18.396      19.228      20.066    
  20.846      21.401      21.340      20.297      18.306      15.895      13.913      13.147      13.914      15.895    
  18.306      20.297      21.339      21.401      21.427      20.981      20.496      19.943      19.255      18.370    
  17.325      16.345      15.744      15.744      16.345      17.325      18.370      19.255      19.943      20.496    
  20.981      21.427      21.773      21.853      21.340      20.038      18.149      16.252      15.059      15.060    
  16.252      18.149      20.038      21.339      21.853      21.772      21.935      21.906      21.772      21.401    
  20.579      19.261      17.724      16.472      15.989      16.472      17.724      19.261      20.579      21.401    
  21.773      21.907      21.935      21.907      21.773      21.401      20.579      19.261      17.724      16.472    
  15.989      16.472      17.724      19.261      20.579      21.401      21.772      21.907      22.269      22.836    
  22.635      21.267      18.804      15.880      13.499      12.581      13.499      15.880      18.804      21.267    
  22.635      22.837      22.269      21.427      20.524      19.631      18.733      17.801      16.847      15.951    
  15.289      15.043      15.289      15.951      16.847      17.801      18.733      19.631      20.524      21.427    
  22.836      23.085      21.895      19.098      15.230      11.453      9.1136      9.1136      11.453      15.230    
  19.098      21.895      23.086      22.836      21.773      20.496      19.228      18.037      16.925      15.889    
  14.969      14.259      13.865      13.865      14.259      14.969      15.889      16.925      18.038      19.228    
  20.496      21.773      22.635      21.895      19.176      14.757      9.7459      5.7582      4.2360      5.7581    
  9.7458      14.757      19.176      21.895      22.635      21.853      20.370      18.787      17.292      15.947    
  14.763      13.752      12.955      12.437      12.256      12.437      12.954      13.751      14.763      15.947    
  17.292      18.787      20.370      21.853      21.267      19.098      14.757      9.0844      3.6992     0.40944    
 0.40942      3.6993      9.0846      14.757      19.098      21.267      21.339      20.042      18.286      16.551    
  14.979      13.621      12.488      11.595      10.969      10.645      10.645      10.969      11.594      12.488    
  13.621      14.980      16.552      18.286      20.042      21.339      18.804      15.230      9.7459      3.6992    
 -1.0402     -2.8367     -1.0401      3.6995      9.7461      15.230      18.804      20.037      19.359      17.676    
  15.815      14.073      12.553      11.291      10.295      9.5696      9.1271      8.9781      9.1271      9.5696    
  10.295      11.291      12.553      14.073      15.815      17.676      19.360      20.038      15.880      11.453    
  5.7582     0.40944     -2.8367     -2.8366     0.40981      5.7586      11.453      15.880      18.149      18.268    
  16.931      15.071      13.240      11.601      10.226      9.1305      8.3142      7.7719      7.5011      7.5012    
  7.7720      8.3142      9.1304      10.225      11.601      13.240      15.071      16.931      18.269      18.149    
  13.499      9.1136      4.2360     0.40942     -1.0401     0.40981      4.2366      9.1140      13.500      16.252    
  16.991      16.084      14.339      12.488      10.781      9.3196      8.1403      7.2440      6.6178      6.2483    
  6.1262      6.2483      6.6179      7.2440      8.1402      9.3194      10.781      12.487      14.339      16.084    
  16.991      16.252      12.581      9.1136      5.7581      3.6993      3.6995      5.7586      9.1140      12.582    
  15.060      15.947      15.300      13.692      11.845      10.103      8.5823      7.3360      6.3725      5.6770    
  5.2282      5.0085      5.0085      5.2283      5.6771      6.3726      7.3359      8.5821      10.103      11.845    
  13.692      15.300      15.947      15.060      13.499      11.453      9.7458      9.0846      9.7461      11.453    
  13.500      15.060      15.543      14.822      13.234      11.366      9.5884      8.0190      6.7169      5.6964    
  4.9428      4.4301      4.1335      4.0366      4.1336      4.4302      4.9429      5.6964      6.7168      8.0188    
  9.5883      11.366      13.234      14.822      15.543      15.059      15.880      15.230      14.757      14.757    
  15.230      15.880      16.252      15.947      14.822      13.066      11.107      9.2638      7.6366      6.2786    
  5.2043      4.3989      3.8325      3.4744      3.3013      3.3014      3.4745      3.8326      4.3989      5.2044    
  6.2786      7.6366      9.2638      11.107      13.066      14.822      15.947      16.252      18.804      19.098    
  19.176      19.098      18.804      18.149      16.991      15.300      13.234      11.107      9.1526      7.4430    
  6.0173      4.8844      4.0266      3.4106      3.0002      2.7661      2.6901      2.7661      3.0003      3.4106    
  4.0267      4.8845      6.0175      7.4431      9.1528      11.107      13.234      15.301      16.991      18.149    
  21.267      21.895      21.895      21.267      20.037      18.268      16.084      13.692      11.366      9.2638    
  7.4430      5.9305      4.7271      3.8101      3.1424      2.6829      2.3964      2.2590      2.2590      2.3963    
  2.6829      3.1425      3.8102      4.7272      5.9307      7.4432      9.2640      11.366      13.692      16.084    
  18.269      20.038      22.635      23.086      22.635      21.339      19.359      16.931      14.339      11.845    
  9.5884      7.6366      6.0173      4.7271      3.7392      3.0124      2.5010      2.1648      1.9743      1.9126    