diamond Si                              
   5.50000000000000     
    -0.000000    0.490819    0.490819
     0.490819   -0.000000    0.490819
     0.490819    0.490819   -0.000000
   Si
     2
Direct
  0.875000  0.875000  0.875000
  0.125000  0.125000  0.125000
 
   32   32   32
 0.22467143331E+02 0.22409632966E+02 0.22190942004E+02 0.21666537169E+02 0.20622710610E+02
 0.19064829061E+02 0.17320274794E+02 0.15930641548E+02 0.15399251229E+02 0.15930603500E+02
 0.17320150389E+02 0.19064595341E+02 0.20622426828E+02 0.21666316690E+02 0.22190869219E+02
 0.22409704705E+02 0.22467273900E+02 0.22409704705E+02 0.22190869219E+02 0.21666316690E+02
 0.20622426828E+02 0.19064595341E+02 0.17320150389E+02 0.15930603500E+02 0.15399251229E+02
 0.15930641548E+02 0.17320274794E+02 0.19064829061E+02 0.20622710610E+02 0.21666537169E+02
 0.22190942004E+02 0.22409632966E+02 0.22409632966E+02 0.22680390592E+02 0.22583436334E+02
 0.21760956506E+02 0.20074805886E+02 0.17801076919E+02 0.15595119990E+02 0.14231095732E+02
 0.14231105121E+02 0.15595113825E+02 0.17800989581E+02 0.20074608342E+02 0.21760687631E+02
 0.22583188113E+02 0.22680265994E+02 0.22409681629E+02 0.21979790473E+02 0.21453102695E+02
 0.20805639202E+02 0.19970044680E+02 0.18868580477E+02 0.17582464802E+02 0.16398305086E+02
 0.15680455568E+02 0.15680505142E+02 0.16398450666E+02 0.17582688360E+02 0.18868827238E+02
 0.19970218057E+02 0.20805653694E+02 0.21452967657E+02 0.21979626957E+02 0.22190942004E+02
 0.22583436334E+02 0.22155515015E+02 0.20582977881E+02 0.17988571684E+02 0.15016927559E+02
 0.12637855637E+02 0.11727288921E+02 0.12637870435E+02 0.15016937266E+02 0.17988526647E+02
 0.20582828399E+02 0.22155276104E+02 0.22583208926E+02 0.22190846520E+02 0.21453047857E+02
 0.20597343803E+02 0.19694815921E+02 0.18745073602E+02 0.17735991635E+02 0.16691872653E+02
 0.15711908579E+02 0.14991669906E+02 0.14724851325E+02 0.14991751119E+02 0.15712061682E+02
 0.16692048006E+02 0.17736099044E+02 0.18745040620E+02 0.19694654210E+02 0.20597156964E+02
 0.21452967657E+02 0.21666537169E+02 0.21760956506E+02 0.20582977881E+02 0.18030881457E+02
 0.14596055088E+02 0.11286428719E+02 0.92497002572E+01 0.92496937913E+01 0.11286429273E+02
 0.14596078272E+02 0.18030881641E+02 0.20582884244E+02 0.21760768347E+02 0.21666352953E+02
 0.20805592392E+02 0.19694753959E+02 0.18533442895E+02 0.17394051235E+02 0.16295365240E+02
 0.15255471359E+02 0.14330865311E+02 0.13618536580E+02 0.13224947005E+02 0.13224961799E+02
 0.13618586190E+02 0.14330940103E+02 0.15255517074E+02 0.16295313562E+02 0.17393891177E+02
 0.18533252918E+02 0.19694654210E+02 0.20805653694E+02 0.20622710610E+02 0.20074805886E+02
 0.17988571684E+02 0.14596055088E+02 0.10759212426E+02 0.77127154558E+01 0.65513062158E+01
 0.77126498196E+01 0.10759180149E+02 0.14596108291E+02 0.17988629178E+02 0.20074749104E+02
 0.20622535810E+02 0.19970049650E+02 0.18744999886E+02 0.17393987873E+02 0.16069858422E+02
 0.14839803682E+02 0.13732595680E+02 0.12777602025E+02 0.12024461818E+02 0.11536375555E+02
 0.11366751958E+02 0.11536408138E+02 0.12024493261E+02 0.12777593802E+02 0.13732526040E+02
 0.14839673393E+02 0.16069704220E+02 0.17393891177E+02 0.18745040620E+02 0.19970218057E+02
 0.19064829061E+02 0.17801076919E+02 0.15016927559E+02 0.11286428719E+02 0.77127154558E+01
 0.55222469723E+01 0.55221729186E+01 0.77125821347E+01 0.11286385435E+02 0.15016993151E+02
 0.17801126509E+02 0.19064755814E+02 0.18868659134E+02 0.17735949554E+02 0.16295264649E+02
 0.14839726270E+02 0.13484820517E+02 0.12286699385E+02 0.11273347159E+02 0.10469880203E+02
 0.99073224278E+01 0.96164558349E+01 0.96164712829E+01 0.99073508218E+01 0.10469882876E+02
 0.11273296791E+02 0.12286602221E+02 0.13484716274E+02 0.14839673393E+02 0.16295313562E+02
 0.17736099044E+02 0.18868827238E+02 0.17320274794E+02 0.15595119990E+02 0.12637855637E+02
 0.92497002572E+01 0.65513062158E+01 0.55221729186E+01 0.65511635917E+01 0.92495511530E+01
 0.12637810104E+02 0.15595145715E+02 0.17320260064E+02 0.17582581389E+02 0.16691898996E+02
 0.15255403571E+02 0.13732478467E+02 0.12286603967E+02 0.11002659233E+02 0.99208105971E+01
 0.90595144829E+01 0.84313952453E+01 0.80483147120E+01 0.79194664982E+01 0.80483118072E+01
 0.84313823979E+01 0.90594888880E+01 0.99207791447E+01 0.11002634028E+02 0.12286602221E+02
 0.13732526040E+02 0.15255517074E+02 0.16692048006E+02 0.17582688360E+02 0.15930641548E+02
 0.14231095732E+02 0.11727288921E+02 0.92496937913E+01 0.77126498196E+01 0.77125821347E+01
 0.92495511530E+01 0.11727181685E+02 0.14231061206E+02 0.15930621169E+02 0.16398383756E+02
 0.15711961032E+02 0.14330854949E+02 0.12777533849E+02 0.11273235644E+02 0.99207170023E+01
 0.87740237388E+01 0.78542454858E+01 0.71660054721E+01 0.67084812640E+01 0.64801720997E+01
 0.64801738477E+01 0.67084723623E+01 0.71659765373E+01 0.78542272982E+01 0.87740515061E+01
 0.99207791447E+01 0.11273296791E+02 0.12777593802E+02 0.14330940103E+02 0.15712061682E+02
 0.16398450666E+02 0.15399251229E+02 0.14231105121E+02 0.12637870435E+02 0.11286429273E+02
 0.10759180149E+02 0.11286385435E+02 0.12637810104E+02 0.14231061206E+02 0.15399237149E+02
 0.15680507435E+02 0.14991744404E+02 0.13618555001E+02 0.12024440921E+02 0.10469823106E+02
 0.90594333650E+01 0.78541822831E+01 0.68790497516E+01 0.61359462743E+01 0.56162517195E+01
 0.53095310351E+01 0.52081929651E+01 0.53095236109E+01 0.56162479425E+01 0.61359576538E+01
 0.68790796187E+01 0.78542272982E+01 0.90594888880E+01 0.10469882876E+02 0.12024493261E+02
 0.13618586190E+02 0.14991751119E+02 0.15680505142E+02 0.15930603500E+02 0.15595113825E+02
 0.15016937266E+02 0.14596078272E+02 0.14596108291E+02 0.15016993151E+02 0.15595145715E+02
 0.15930621169E+02 0.15680507435E+02 0.14724938681E+02 0.13225023238E+02 0.11536401747E+02
 0.99073091910E+01 0.84313580915E+01 0.71659671220E+01 0.61359270348E+01 0.53410717208E+01
 0.47674089871E+01 0.43972674315E+01 0.42161249511E+01 0.42161050088E+01 0.43972413857E+01
 0.47674248090E+01 0.53411182214E+01 0.61359576538E+01 0.71659765373E+01 0.84313823979E+01
 0.99073508218E+01 0.11536408138E+02 0.13224961799E+02 0.14724851325E+02 0.15680455568E+02
 0.17320150389E+02 0.17800989581E+02 0.17988526647E+02 0.18030881641E+02 0.17988629178E+02
 0.17801126509E+02 0.17320260064E+02 0.16398383756E+02 0.14991744404E+02 0.13225023238E+02
 0.11366810376E+02 0.96164995939E+01 0.80483196519E+01 0.67084746226E+01 0.56162495205E+01
 0.47674252257E+01 0.41428506068E+01 0.37184201968E+01 0.34729713311E+01 0.33927222302E+01
 0.34729658422E+01 0.37184149131E+01 0.41428489417E+01 0.47674248090E+01 0.56162479425E+01
 0.67084723623E+01 0.80483118072E+01 0.96164712829E+01 0.11366751958E+02 0.13224947005E+02
 0.14991669906E+02 0.16398305086E+02 0.19064595341E+02 0.20074608342E+02 0.20582828399E+02
 0.20582884244E+02 0.20074749104E+02 0.19064755814E+02 0.17582581389E+02 0.15711961032E+02
 0.13618555001E+02 0.11536401747E+02 0.96164995939E+01 0.79195071922E+01 0.64801998141E+01
 0.53095503772E+01 0.43972820922E+01 0.37184504494E+01 0.32425524231E+01 0.29418531484E+01
 0.27965293394E+01 0.27965474009E+01 0.29418825533E+01 0.32425520078E+01 0.37184149131E+01
 0.43972413857E+01 0.53095236109E+01 0.64801738477E+01 0.79194664982E+01 0.96164558349E+01
 0.11536375555E+02 0.13618536580E+02 0.15711908579E+02 0.17582464802E+02 0.20622426828E+02
 0.21760687631E+02 0.22155276104E+02 0.21760768347E+02 0.20622535810E+02 0.18868659134E+02
 0.16691898996E+02 0.14330854949E+02 0.12024440921E+02 0.99073091910E+01 0.80483196519E+01
 0.64801998141E+01 0.52082363616E+01 0.42161445558E+01 0.34729829027E+01 0.29418743758E+01
 0.25884838056E+01 0.23867752630E+01 0.23212318279E+01 0.23867903398E+01 0.25885039150E+01
 0.29418825533E+01 0.34729658422E+01 0.42161050088E+01 0.52081929651E+01 0.64801720997E+01
 0.80483147120E+01 0.99073224278E+01 0.12024461818E+02 0.14330865311E+02 0.16691872653E+02
 0.18868580477E+02 0.21666316690E+02 0.22583188113E+02 0.22583208926E+02 0.21666352953E+02
 0.19970049650E+02 0.17735949554E+02 0.15255403571E+02 0.12777533849E+02 0.10469823106E+02
 0.84313580915E+01 0.67084746226E+01 0.53095503772E+01 0.42161445558E+01 0.33927191834E+01
 0.27965258053E+01 0.23867719318E+01 0.21310957340E+01 0.20083183543E+01 0.20083173886E+01
 0.21311002944E+01 0.23867903398E+01 0.27965474009E+01 0.33927222302E+01 0.42161249511E+01
 0.53095310351E+01 0.67084812640E+01 0.84313952453E+01 0.10469880203E+02 0.12777602025E+02
 0.15255471359E+02 0.17735991635E+02 0.19970044680E+02 0.22190869219E+02 0.22680265994E+02
 0.22190846520E+02 0.20805592392E+02 0.18744999886E+02 0.16295264649E+02 0.13732478467E+02
 0.11273235644E+02 0.90594333650E+01 0.71659671220E+01 0.56162495205E+01 0.43972820922E+01
 0.34729829027E+01 0.27965258053E+01 0.23212121437E+01 0.20082907520E+01 0.18306693871E+01
 0.17730803874E+01 0.18306883218E+01 0.20083173886E+01 0.23212318279E+01 0.27965293394E+01
 0.34729713311E+01 0.43972674315E+01 0.56162517195E+01 0.71660054721E+01 0.90595144829E+01
 0.11273347159E+02 0.13732595680E+02 0.16295365240E+02 0.18745073602E+02 0.20805639202E+02
 0.22409704705E+02 0.22409681629E+02 0.21453047857E+02 0.19694753959E+02 0.17393987873E+02
 0.14839726270E+02 0.12286603967E+02 0.99207170023E+01 0.78541822831E+01 0.61359270348E+01
 0.47674252257E+01 0.37184504494E+01 0.29418743758E+01 0.23867719318E+01 0.20082907520E+01
 0.17730467541E+01 0.16602445200E+01 0.16602595577E+01 0.17730803874E+01 0.20083183543E+01
 0.23867752630E+01 0.29418531484E+01 0.37184201968E+01 0.47674089871E+01 0.61359462743E+01
 0.78542454858E+01 0.99208105971E+01 0.12286699385E+02 0.14839803682E+02 0.17394051235E+02
 0.19694815921E+02 0.21453102695E+02 0.22467273900E+02 0.21979790473E+02 0.20597343803E+02
 0.18533442895E+02 0.16069858422E+02 0.13484820517E+02 0.11002659233E+02 0.87740237388E+01
 0.68790497516E+01 0.53410717208E+01 0.41428506068E+01 0.32425524231E+01 0.25884838056E+01
 0.21310957340E+01 0.18306693871E+01 0.16602445200E+01 0.16049801238E+01 0.16602445200E+01
 0.18306693871E+01 0.21310957340E+01 0.25884838056E+01 0.32425524231E+01 0.41428506068E+01
 0.53410717208E+01 0.68790497516E+01 0.87740237388E+01 0.11002659233E+02 0.13484820517E+02
 0.16069858422E+02 0.18533442895E+02 0.20597343803E+02 0.21979790473E+02 0.22409704705E+02
 0.21453102695E+02 0.19694815921E+02 0.17394051235E+02 0.14839803682E+02 0.12286699385E+02
 0.99208105971E+01 0.78542454858E+01 0.61359462743E+01 0.47674089871E+01 0.37184201968E+01
 0.29418531484E+01 0.23867752630E+01 0.20083183543E+01 0.17730803874E+01 0.16602595577E+01
 0.16602445200E+01 0.17730467541E+01 0.20082907520E+01 0.23867719318E+01 0.29418743758E+01
 0.37184504494E+01 0.47674252257E+01 0.61359270348E+01 0.78541822831E+01 0.99207170023E+01
 0.12286603967E+02 0.14839726270E+02 0.17393987873E+02 0.19694753959E+02 0.21453047857E+02
 0.22409681629E+02 0.22190869219E+02 0.20805639202E+02 0.18745073602E+02 0.16295365240E+02
 0.13732595680E+02 0.11273347159E+02 0.90595144829E+01 0.71660054721E+01 0.56162517195E+01
 0.43972674315E+01 0.34729713311E+01 0.27965293394E+01 0.23212318279E+01 0.20083173886E+01
 0.18306883218E+01 0.17730803874E+01 0.18306693871E+01 0.20082907520E+01 0.23212121437E+01
 0.27965258053E+01 0.34729829027E+01 0.43972820922E+01 0.56162495205E+01 0.71659671220E+01
 0.90594333650E+01 0.11273235644E+02 0.13732478467E+02 0.16295264649E+02 0.18744999886E+02
 0.20805592392E+02 0.22190846520E+02 0.22680265994E+02 0.21666316690E+02 0.19970044680E+02
 0.17735991635E+02 0.15255471359E+02 0.12777602025E+02 0.10469880203E+02 0.84313952453E+01
 0.67084812640E+01 0.53095310351E+01 0.42161249511E+01 0.33927222302E+01 0.27965474009E+01
 0.23867903398E+01 0.21311002944E+01 0.20083173886E+01 0.20083183543E+01 0.21310957340E+01
 0.23867719318E+01 0.27965258053E+01 0.33927191834E+01 0.42161445558E+01 0.53095503772E+01
 0.67084746226E+01 0.84313580915E+01 0.10469823106E+02 0.12777533849E+02 0.15255403571E+02
 0.17735949554E+02 0.19970049650E+02 0.21666352953E+02 0.22583208926E+02 0.22583188113E+02
 0.20622426828E+02 0.18868580477E+02 0.16691872653E+02 0.14330865311E+02 0.12024461818E+02
 0.99073224278E+01 0.80483147120E+01 0.64801720997E+01 0.52081929651E+01 0.42161050088E+01
 0.34729658422E+01 0.29418825533E+01 0.25885039150E+01 0.23867903398E+01 0.23212318279E+01
 0.23867752630E+01 0.25884838056E+01 0.29418743758E+01 0.34729829027E+01 0.42161445558E+01
 0.52082363616E+01 0.64801998141E+01 0.80483196519E+01 0.99073091910E+01 0.12024440921E+02
 0.14330854949E+02 0.16691898996E+02 0.18868659134E+02 0.20622535810E+02 0.21760768347E+02
 0.22155276104E+02 0.21760687631E+02 0.19064595341E+02 0.17582464802E+02 0.15711908579E+02
 0.13618536580E+02 0.11536375555E+02 0.96164558349E+01 0.79194664982E+01 0.64801738477E+01
 0.53095236109E+01 0.43972413857E+01 0.37184149131E+01 0.32425520078E+01 0.29418825533E+01
 0.27965474009E+01 0.27965293394E+01 0.29418531484E+01 0.32425524231E+01 0.37184504494E+01
 0.43972820922E+01 0.53095503772E+01 0.64801998141E+01 0.79195071922E+01 0.96164995939E+01
 0.11536401747E+02 0.13618555001E+02 0.15711961032E+02 0.17582581389E+02 0.19064755814E+02
 0.20074749104E+02 0.20582884244E+02 0.20582828399E+02 0.20074608342E+02 0.17320150389E+02
 0.16398305086E+02 0.14991669906E+02 0.13224947005E+02 0.11366751958E+02 0.96164712829E+01
 0.80483118072E+01 0.67084723623E+01 0.56162479425E+01 0.47674248090E+01 0.41428489417E+01
 0.37184149131E+01 0.34729658422E+01 0.33927222302E+01 0.34729713311E+01 0.37184201968E+01
 0.41428506068E+01 0.47674252257E+01 0.56162495205E+01 0.67084746226E+01 0.80483196519E+01
 0.96164995939E+01 0.11366810376E+02 0.13225023238E+02 0.14991744404E+02 0.16398383756E+02
 0.17320260064E+02 0.17801126509E+02 0.17988629178E+02 0.18030881641E+02 0.17988526647E+02
 0.17800989581E+02 0.15930603500E+02 0.15680455568E+02 0.14724851325E+02 0.13224961799E+02
 0.11536408138E+02 0.99073508218E+01 0.84313823979E+01 0.71659765373E+01 0.61359576538E+01
 0.53411182214E+01 0.47674248090E+01 0.43972413857E+01 0.42161050088E+01 0.42161249511E+01
 0.43972674315E+01 0.47674089871E+01 0.53410717208E+01 0.61359270348E+01 0.71659671220E+01
 0.84313580915E+01 0.99073091910E+01 0.11536401747E+02 0.13225023238E+02 0.14724938681E+02
 0.15680507435E+02 0.15930621169E+02 0.15595145715E+02 0.15016993151E+02 0.14596108291E+02
 0.14596078272E+02 0.15016937266E+02 0.15595113825E+02 0.15399251229E+02 0.15680505142E+02
 0.14991751119E+02 0.13618586190E+02 0.12024493261E+02 0.10469882876E+02 0.90594888880E+01
 0.78542272982E+01 0.68790796187E+01 0.61359576538E+01 0.56162479425E+01 0.53095236109E+01
 0.52081929651E+01 0.53095310351E+01 0.56162517195E+01 0.61359462743E+01 0.68790497516E+01
 0.78541822831E+01 0.90594333650E+01 0.10469823106E+02 0.12024440921E+02 0.13618555001E+02
 0.14991744404E+02 0.15680507435E+02 0.15399237149E+02 0.14231061206E+02 0.12637810104E+02
 0.11286385435E+02 0.10759180149E+02 0.11286429273E+02 0.12637870435E+02 0.14231105121E+02
 0.15930641548E+02 0.16398450666E+02 0.15712061682E+02 0.14330940103E+02 0.12777593802E+02
 0.11273296791E+02 0.99207791447E+01 0.87740515061E+01 0.78542272982E+01 0.71659765373E+01
 0.67084723623E+01 0.64801738477E+01 0.64801720997E+01 0.67084812640E+01 0.71660054721E+01
 0.78542454858E+01 0.87740237388E+01 0.99207170023E+01 0.11273235644E+02 0.12777533849E+02
 0.14330854949E+02 0.15711961032E+02 0.16398383756E+02 0.15930621169E+02 0.14231061206E+02
 0.11727181685E+02 0.92495511530E+01 0.77125821347E+01 0.77126498196E+01 0.92496937913E+01
 0.11727288921E+02 0.14231095732E+02 0.17320274794E+02 0.17582688360E+02 0.16692048006E+02
 0.15255517074E+02 0.13732526040E+02 0.12286602221E+02 0.11002634028E+02 0.99207791447E+01
 0.90594888880E+01 0.84313823979E+01 0.80483118072E+01 0.79194664982E+01 0.80483147120E+01
 0.84313952453E+01 0.90595144829E+01 0.99208105971E+01 0.11002659233E+02 0.12286603967E+02
 0.13732478467E+02 0.15255403571E+02 0.16691898996E+02 0.17582581389E+02 0.17320260064E+02
 0.15595145715E+02 0.12637810104E+02 0.92495511530E+01 0.65511635917E+01 0.55221729186E+01
 0.65513062158E+01 0.92497002572E+01 0.12637855637E+02 0.15595119990E+02 0.19064829061E+02
 0.18868827238E+02 0.17736099044E+02 0.16295313562E+02 0.14839673393E+02 0.13484716274E+02
 0.12286602221E+02 0.11273296791E+02 0.10469882876E+02 0.99073508218E+01 0.96164712829E+01
 0.96164558349E+01 0.99073224278E+01 0.10469880203E+02 0.11273347159E+02 0.12286699385E+02
 0.13484820517E+02 0.14839726270E+02 0.16295264649E+02 0.17735949554E+02 0.18868659134E+02
 0.19064755814E+02 0.17801126509E+02 0.15016993151E+02 0.11286385435E+02 0.77125821347E+01
 0.55221729186E+01 0.55222469723E+01 0.77127154558E+01 0.11286428719E+02 0.15016927559E+02
 0.17801076919E+02 0.20622710610E+02 0.19970218057E+02 0.18745040620E+02 0.17393891177E+02
 0.16069704220E+02 0.14839673393E+02 0.13732526040E+02 0.12777593802E+02 0.12024493261E+02
 0.11536408138E+02 0.11366751958E+02 0.11536375555E+02 0.12024461818E+02 0.12777602025E+02
 0.13732595680E+02 0.14839803682E+02 0.16069858422E+02 0.17393987873E+02 0.18744999886E+02
 0.19970049650E+02 0.20622535810E+02 0.20074749104E+02 0.17988629178E+02 0.14596108291E+02
 0.10759180149E+02 0.77126498196E+01 0.65513062158E+01 0.77127154558E+01 0.10759212426E+02
 0.14596055088E+02 0.17988571684E+02 0.20074805886E+02 0.21666537169E+02 0.20805653694E+02
 0.19694654210E+02 0.18533252918E+02 0.17393891177E+02 0.16295313562E+02 0.15255517074E+02
 0.14330940103E+02 0.13618586190E+02 0.13224961799E+02 0.13224947005E+02 0.13618536580E+02
 0.14330865311E+02 0.15255471359E+02 0.16295365240E+02 0.17394051235E+02 0.18533442895E+02
 0.19694753959E+02 0.20805592392E+02 0.21666352953E+02 0.21760768347E+02 0.20582884244E+02
 0.18030881641E+02 0.14596078272E+02 0.11286429273E+02 0.92496937913E+01 0.92497002572E+01
 0.11286428719E+02 0.14596055088E+02 0.18030881457E+02 0.20582977881E+02 0.21760956506E+02
 0.22190942004E+02 0.21452967657E+02 0.20597156964E+02 0.19694654210E+02 0.18745040620E+02
 0.17736099044E+02 0.16692048006E+02 0.15712061682E+02 0.14991751119E+02 0.14724851325E+02
 0.14991669906E+02 0.15711908579E+02 0.16691872653E+02 0.17735991635E+02 0.18745073602E+02
 0.19694815921E+02 0.20597343803E+02 0.21453047857E+02 0.22190846520E+02 0.22583208926E+02
 0.22155276104E+02 0.20582828399E+02 0.17988526647E+02 0.15016937266E+02 0.12637870435E+02
 0.11727288921E+02 0.12637855637E+02 0.15016927559E+02 0.17988571684E+02 0.20582977881E+02
 0.22155515015E+02 0.22583436334E+02 0.22409632966E+02 0.21979626957E+02 0.21452967657E+02
 0.20805653694E+02 0.19970218057E+02 0.18868827238E+02 0.17582688360E+02 0.16398450666E+02
 0.15680505142E+02 0.15680455568E+02 0.16398305086E+02 0.17582464802E+02 0.18868580477E+02
 0.19970044680E+02 0.20805639202E+02 0.21453102695E+02 0.21979790473E+02 0.22409681629E+02
 0.22680265994E+02 0.22583188113E+02 0.21760687631E+02 0.20074608342E+02 0.17800989581E+02
 0.15595113825E+02 0.14231105121E+02 0.14231095732E+02 0.15595119990E+02 0.17801076919E+02
 0.20074805886E+02 0.21760956506E+02 0.22583436334E+02 0.22680390592E+02 0.22409743561E+02
 0.22680265954E+02 0.22583182864E+02 0.21760751055E+02 0.20074745403E+02 0.17801121568E+02
 0.15595162088E+02 0.14231076284E+02 0.14231065870E+02 0.15595134241E+02 0.17801081386E+02
 0.20074698471E+02 0.21760711821E+02 0.22583165064E+02 0.22680252708E+02 0.22409689502E+02
 0.21979790749E+02 0.21453094554E+02 0.20805655499E+02 0.19970086996E+02 0.18868599528E+02
 0.17582426232E+02 0.16398240492E+02 0.15680421949E+02 0.15680510017E+02 0.16398439257E+02
 0.17582605875E+02 0.18868692464E+02 0.19970136234E+02 0.20805738266E+02 0.21453221786E+02
 0.21979904023E+02 0.22680265954E+02 0.23067345741E+02 0.22580938481E+02 0.20888878214E+02
 0.18127225482E+02 0.14977616854E+02 0.12461081548E+02 0.11498731803E+02 0.12461225011E+02
 0.14977776672E+02 0.18127283476E+02 0.20888830599E+02 0.22580862270E+02 0.23067297430E+02
 0.22680238166E+02 0.21922566123E+02 0.21045289234E+02 0.20121443363E+02 0.19148626605E+02
 0.18111650299E+02 0.17029471267E+02 0.16006949722E+02 0.15252900236E+02 0.14973203666E+02
 0.15253031453E+02 0.16007119552E+02 0.17029591081E+02 0.18111709846E+02 0.19148670506E+02
 0.20121501489E+02 0.21045349507E+02 0.21922606376E+02 0.22583182864E+02 0.22580938481E+02
 0.21162671521E+02 0.18235870100E+02 0.14356153974E+02 0.10642512213E+02 0.83639883464E+01
 0.83641203678E+01 0.10642799335E+02 0.14356380542E+02 0.18235920763E+02 0.21162607513E+02
 0.22580884734E+02 0.22583186340E+02 0.21707362343E+02 0.20542030371E+02 0.19325367400E+02
 0.18132668762E+02 0.16980271948E+02 0.15884313885E+02 0.14904134020E+02 0.14142495410E+02
 0.13718790262E+02 0.13718818631E+02 0.14142568010E+02 0.14904216032E+02 0.15884367942E+02
 0.16980291116E+02 0.18132678463E+02 0.19325382958E+02 0.20542033518E+02 0.21707342721E+02
 0.21760751055E+02 0.20888878214E+02 0.18235870100E+02 0.14100649063E+02 0.95004625595E+01
 0.58752807714E+01 0.44976121397E+01 0.58755557557E+01 0.95007936561E+01 0.14100815430E+02
 0.18235847649E+02 0.20888812512E+02 0.21760763737E+02 0.21205559241E+02 0.19924083405E+02
 0.18483237161E+02 0.17070564312E+02 0.15757134143E+02 0.14570703157E+02 0.13541316573E+02
 0.12724225897E+02 0.12191903023E+02 0.12006348995E+02 0.12191885682E+02 0.12724223547E+02
 0.13541335101E+02 0.14570714123E+02 0.15757127797E+02 0.17070556984E+02 0.18483220242E+02
 0.19924026723E+02 0.21205485080E+02 0.20074745403E+02 0.18127225482E+02 0.14356153974E+02
 0.95004625595E+01 0.49284646138E+01 0.21478529090E+01 0.21479980127E+01 0.49287699956E+01
 0.95006822026E+01 0.14356179566E+02 0.18127153369E+02 0.20074718135E+02 0.20218554523E+02
 0.19139013544E+02 0.17599795263E+02 0.16028854898E+02 0.14562321219E+02 0.13261622569E+02
 0.12156156941E+02 0.11274093740E+02 0.10652672522E+02 0.10329936883E+02 0.10329922435E+02
 0.10652646447E+02 0.11274081385E+02 0.12156156305E+02 0.13261615551E+02 0.14562303834E+02
 0.16028829894E+02 0.17599749500E+02 0.19138942136E+02 0.20218503076E+02 0.17801121568E+02
 0.14977616854E+02 0.10642512213E+02 0.58752807714E+01 0.21478529090E+01 0.73690875276E+00
 0.21479682395E+01 0.58753988911E+01 0.10642532469E+02 0.14977548441E+02 0.17801050382E+02
 0.18746658733E+02 0.18130878603E+02 0.16669824972E+02 0.15029591126E+02 0.13456224195E+02
 0.12051123309E+02 0.10861238862E+02 0.99084850771E+01 0.92094372603E+01 0.87809029433E+01
 0.86363419395E+01 0.87808999146E+01 0.92094340827E+01 0.99084829422E+01 0.10861236391E+02
 0.12051119327E+02 0.13456215523E+02 0.15029568801E+02 0.16669785317E+02 0.18130844347E+02
 0.18746672058E+02 0.15595162088E+02 0.12461081548E+02 0.83639883464E+01 0.44976121397E+01
 0.21479980127E+01 0.21479682395E+01 0.44975322928E+01 0.83638767793E+01 0.12460955535E+02
 0.15595047304E+02 0.17097103541E+02 0.16967111610E+02 0.15727975257E+02 0.14093282984E+02
 0.12467614902E+02 0.10987308198E+02 0.97221366522E+01 0.87007254583E+01 0.79318399574E+01
 0.74180029144E+01 0.71606418235E+01 0.71606442023E+01 0.74180021507E+01 0.79318290866E+01
 0.87007199319E+01 0.97221592068E+01 0.10987351481E+02 0.12467638689E+02 0.14093261269E+02
 0.15727935177E+02 0.16967110094E+02 0.17097169796E+02 0.14231076284E+02 0.11498731803E+02
 0.83641203678E+01 0.58755557557E+01 0.49287699956E+01 0.58753988911E+01 0.83638767793E+01
 0.11498498357E+02 0.14230920447E+02 0.15782205526E+02 0.15900034935E+02 0.14862930517E+02
 0.13270416302E+02 0.11623779889E+02 0.10095034955E+02 0.87701713063E+01 0.76881278008E+01
 0.68577140111E+01 0.62736992052E+01 0.59275990144E+01 0.58129968582E+01 0.59275836687E+01
 0.62736764570E+01 0.68577067126E+01 0.76881581416E+01 0.87702309181E+01 0.10095086005E+02
 0.11623792690E+02 0.13270395476E+02 0.14862904486E+02 0.15900037530E+02 0.15782271742E+02
 0.14231065870E+02 0.12461225011E+02 0.10642799335E+02 0.95007936561E+01 0.95006822026E+01
 0.10642532469E+02 0.12460955535E+02 0.14230920447E+02 0.15279212384E+02 0.15254090142E+02
 0.14234367056E+02 0.12643683031E+02 0.10965575429E+02 0.93946027576E+01 0.80189213680E+01
 0.68833296074E+01 0.59986654313E+01 0.53559340741E+01 0.49393142110E+01 0.47348602757E+01
 0.47348432811E+01 0.49392851719E+01 0.53559318814E+01 0.59986993547E+01 0.68833721909E+01
 0.80189472495E+01 0.93946171078E+01 0.10965591393E+02 0.12643685866E+02 0.14234329909E+02
 0.15254032363E+02 0.15279216962E+02 0.15595134241E+02 0.14977776672E+02 0.14356380542E+02
 0.14100815430E+02 0.14356179566E+02 0.14977548441E+02 0.15595047304E+02 0.15782205526E+02
 0.15254090142E+02 0.14002609247E+02 0.12301639580E+02 0.10542759466E+02 0.89087562815E+01
 0.74758096749E+01 0.62861049607E+01 0.53498684501E+01 0.46552090079E+01 0.41806110379E+01
 0.39052640095E+01 0.38151039244E+01 0.39052606571E+01 0.41806075818E+01 0.46552115767E+01
 0.53498808808E+01 0.62861225481E+01 0.74758228453E+01 0.89087612510E+01 0.10542755035E+02
 0.12301608605E+02 0.14002524366E+02 0.15253966052E+02 0.15782134953E+02 0.17801081386E+02
 0.18127283476E+02 0.18235920763E+02 0.18235847649E+02 0.18127153369E+02 0.17801050382E+02
 0.17097103541E+02 0.15900034935E+02 0.14234367056E+02 0.12301639580E+02 0.10396540835E+02
 0.86592524249E+01 0.71469467201E+01 0.58918237015E+01 0.48992694572E+01 0.41533206551E+01
 0.36270968810E+01 0.32934051010E+01 0.31318486200E+01 0.31318638148E+01 0.32934223133E+01
 0.36270800453E+01 0.41532890898E+01 0.48992662717E+01 0.58918422943E+01 0.71469403059E+01
 0.86592095317E+01 0.10396495032E+02 0.12301595186E+02 0.14234276923E+02 0.15899890429E+02
 0.17096997173E+02 0.20074698471E+02 0.20888830599E+02 0.21162607513E+02 0.20888812512E+02
 0.20074718135E+02 0.18746658733E+02 0.16967111610E+02 0.14862930517E+02 0.12643683031E+02
 0.10542759466E+02 0.86592524249E+01 0.70368145030E+01 0.56960488046E+01 0.46346608197E+01
 0.38311224155E+01 0.32529961961E+01 0.28668859176E+01 0.26461128450E+01 0.25743280467E+01
 0.26461239680E+01 0.28668910589E+01 0.32529875261E+01 0.38311072541E+01 0.46346399117E+01
 0.56960129200E+01 0.70367705596E+01 0.86592273255E+01 0.10542758900E+02 0.12643666064E+02
 0.14862853858E+02 0.16966993377E+02 0.18746568891E+02 0.21760711821E+02 0.22580862270E+02
 0.22580884734E+02 0.21760763737E+02 0.20218554523E+02 0.18130878603E+02 0.15727975257E+02
 0.13270416302E+02 0.10965575429E+02 0.89087562815E+01 0.71469467201E+01 0.56960488046E+01
 0.45475040666E+01 0.36739602528E+01 0.30373165616E+01 0.25981932323E+01 0.23237802454E+01
 0.21919490511E+01 0.21919487397E+01 0.23237891234E+01 0.25982177239E+01 0.30373324548E+01
 0.36739363811E+01 0.45474498085E+01 0.56960126559E+01 0.71469609135E+01 0.89088011265E+01
 0.10965607547E+02 0.13270415574E+02 0.15727949842E+02 0.18130837914E+02 0.20218501250E+02
 0.22583165064E+02 0.23067297430E+02 0.22583186340E+02 0.21205559241E+02 0.19139013544E+02
 0.16669824972E+02 0.14093282984E+02 0.11623779889E+02 0.93946027576E+01 0.74758096749E+01
 0.58918237015E+01 0.46346608197E+01 0.36739602528E+01 0.29669204303E+01 0.24685211189E+01
 0.21399764259E+01 0.19534499237E+01 0.18929806840E+01 0.19534687375E+01 0.21400025138E+01
 0.24685372213E+01 0.29669162364E+01 0.36739434845E+01 0.46346528627E+01 0.58918410299E+01
 0.74758517423E+01 0.93946598263E+01 0.11623846210E+02 0.14093353818E+02 0.16669884221E+02
 0.19139039014E+02 0.21205547838E+02 0.22680252708E+02 0.22680238166E+02 0.21707362343E+02
 0.19924083405E+02 0.17599795263E+02 0.15029591126E+02 0.12467614902E+02 0.10095034955E+02
 0.80189213680E+01 0.62861049607E+01 0.48992694572E+01 0.38311224155E+01 0.30373165616E+01
 0.24685211189E+01 0.20802725810E+01 0.18388969288E+01 0.17231657459E+01 0.17231815408E+01
 0.18389289109E+01 0.20802934848E+01 0.24685221151E+01 0.30373092601E+01 0.38311175648E+01
 0.48992692573E+01 0.62861178323E+01 0.80189681881E+01 0.10095128695E+02 0.12467739985E+02
 0.15029713436E+02 0.17599890871E+02 0.19924149601E+02 0.21707403424E+02 0.22409689502E+02
 0.21922566123E+02 0.20542030371E+02 0.18483237161E+02 0.16028854898E+02 0.13456224195E+02
 0.10987308198E+02 0.87701713063E+01 0.68833296074E+01 0.53498684501E+01 0.41533206551E+01
 0.32529961961E+01 0.25981932323E+01 0.21399764259E+01 0.18388969288E+01 0.16680725623E+01
 0.16126784975E+01 0.16680871672E+01 0.18389224937E+01 0.21399982066E+01 0.25981913701E+01
 0.32529669347E+01 0.41532857486E+01 0.53498572409E+01 0.68833551360E+01 0.87702279027E+01
 0.10987386181E+02 0.13456317293E+02 0.16028953828E+02 0.18483325550E+02 0.20542092715E+02
 0.21922596649E+02 0.21979790749E+02 0.21045289234E+02 0.19325367400E+02 0.17070564312E+02
 0.14562321219E+02 0.12051123309E+02 0.97221366522E+01 0.76881278008E+01 0.59986654313E+01
 0.46552090079E+01 0.36270968810E+01 0.28668859176E+01 0.23237802454E+01 0.19534499237E+01
 0.17231657459E+01 0.16126784975E+01 0.16126731175E+01 0.17231572164E+01 0.19534492280E+01
 0.23237849544E+01 0.28668844957E+01 0.36270859858E+01 0.46551959977E+01 0.59986540884E+01
 0.76881129620E+01 0.97221174471E+01 0.12051112016E+02 0.14562329941E+02 0.17070587513E+02
 0.19325387110E+02 0.21045296233E+02 0.21979791141E+02 0.21453094554E+02 0.20121443363E+02
 0.18132668762E+02 0.15757134143E+02 0.13261622569E+02 0.10861238862E+02 0.87007254583E+01
 0.68577140111E+01 0.53559340741E+01 0.41806110379E+01 0.32934051010E+01 0.26461128450E+01
 0.21919490511E+01 0.18929806840E+01 0.17231815408E+01 0.16680871672E+01 0.17231572164E+01
 0.18929428465E+01 0.21919217137E+01 0.26461191599E+01 0.32934410216E+01 0.41806406044E+01
 0.53559205899E+01 0.68576531820E+01 0.87006416463E+01 0.10861154285E+02 0.13261541551E+02
 0.15757056397E+02 0.18132603560E+02 0.20121402149E+02 0.21453077476E+02 0.21922595147E+02
 0.20805655499E+02 0.19148626605E+02 0.16980271948E+02 0.14570703157E+02 0.12156156941E+02
 0.99084850771E+01 0.79318399574E+01 0.62736992052E+01 0.49393142110E+01 0.39052640095E+01
 0.31318486200E+01 0.25743280467E+01 0.21919487397E+01 0.19534687375E+01 0.18389289109E+01
 0.18389224937E+01 0.19534492280E+01 0.21919217137E+01 0.25743104391E+01 0.31318559175E+01
 0.39052898712E+01 0.49393301670E+01 0.62736786986E+01 0.79317792365E+01 0.99083987871E+01
 0.12156059812E+02 0.14570602736E+02 0.16980175829E+02 0.19148547243E+02 0.20805604599E+02