   2   2   0   0
  0.2079688E+02  0.3889087E-09  0.3889087E-09  0.3889087E-09  0.5000000E-15
  1.000000000000000E-004
  CAR 
 diamond Si                              
     16.79756427     -7.21947773  301      6.18962178      1.00000000
     -7.219  0.0000E+00  0.0000E+00
     -7.139  0.0000E+00  0.0000E+00
     -7.059  0.0000E+00  0.0000E+00
     -6.979  0.0000E+00  0.0000E+00
     -6.899  0.0000E+00  0.0000E+00
     -6.819  0.0000E+00  0.0000E+00
     -6.739  0.0000E+00  0.0000E+00
     -6.659  0.1079E-15  0.8642E-17
     -6.579  0.3294E-12  0.2638E-13
     -6.499  0.2866E-09  0.2297E-10
     -6.419  0.7198E-07  0.5785E-08
     -6.339  0.5342E-05  0.4335E-06
     -6.259  0.1254E-03  0.1047E-04
     -6.179  0.1155E-02  0.1029E-03
     -6.099  0.6068E-02  0.5887E-03
     -6.019  0.1795E-01  0.2026E-02
     -5.939  0.2427E-01  0.3969E-02
     -5.859  0.2532E-01  0.5996E-02
     -5.778  0.4115E-01  0.9291E-02
     -5.698  0.5737E-01  0.1388E-01
     -5.618  0.4180E-01  0.1723E-01
     -5.538  0.2763E-01  0.1944E-01
     -5.458  0.5511E-01  0.2385E-01
     -5.378  0.8170E-01  0.3039E-01
     -5.298  0.6783E-01  0.3582E-01
     -5.218  0.6564E-01  0.4108E-01
     -5.138  0.6936E-01  0.4663E-01
     -5.058  0.4940E-01  0.5059E-01
     -4.978  0.4584E-01  0.5426E-01
     -4.898  0.9898E-01  0.6218E-01
     -4.818  0.1292E+00  0.7252E-01
     -4.738  0.8608E-01  0.7941E-01
     -4.658  0.8283E-01  0.8605E-01
     -4.578  0.9598E-01  0.9373E-01
     -4.498  0.7102E-01  0.9941E-01
     -4.417  0.5248E-01  0.1036E+00
     -4.337  0.9677E-01  0.1114E+00
     -4.257  0.1506E+00  0.1234E+00
     -4.177  0.1606E+00  0.1363E+00
     -4.097  0.1408E+00  0.1475E+00
     -4.017  0.1157E+00  0.1568E+00
     -3.937  0.9689E-01  0.1646E+00
     -3.857  0.9756E-01  0.1724E+00
     -3.777  0.9638E-01  0.1801E+00
     -3.697  0.1592E+00  0.1928E+00
     -3.617  0.2635E+00  0.2139E+00
     -3.537  0.2298E+00  0.2323E+00
     -3.457  0.1283E+00  0.2426E+00
     -3.377  0.1462E+00  0.2543E+00
     -3.297  0.1389E+00  0.2654E+00
     -3.217  0.7971E-01  0.2718E+00
     -3.137  0.1032E+00  0.2801E+00
     -3.057  0.1920E+00  0.2954E+00
     -2.976  0.2175E+00  0.3128E+00
     -2.896  0.1282E+00  0.3231E+00
     -2.816  0.6468E-01  0.3283E+00
     -2.736  0.7928E-01  0.3346E+00
     -2.656  0.7811E-01  0.3409E+00
     -2.576  0.1076E+00  0.3495E+00
     -2.496  0.1683E+00  0.3630E+00
     -2.416  0.1227E+00  0.3728E+00
     -2.336  0.6597E-01  0.3781E+00
     -2.256  0.4051E-01  0.3813E+00
     -2.176  0.3091E-01  0.3838E+00
     -2.096  0.4975E-01  0.3878E+00
     -2.016  0.6343E-01  0.3929E+00
     -1.936  0.6113E-01  0.3978E+00
     -1.856  0.4150E-01  0.4011E+00
     -1.776  0.2535E-01  0.4031E+00
     -1.696  0.2331E-01  0.4050E+00
     -1.616  0.3825E-01  0.4080E+00
     -1.535  0.2945E-01  0.4104E+00
     -1.455  0.2019E-01  0.4120E+00
     -1.375  0.3867E-01  0.4151E+00
     -1.295  0.5611E-01  0.4196E+00
     -1.215  0.1196E+00  0.4292E+00
     -1.135  0.1969E+00  0.4449E+00
     -1.055  0.1796E+00  0.4593E+00
     -0.975  0.1433E+00  0.4708E+00
     -0.895  0.2196E+00  0.4884E+00
     -0.815  0.2977E+00  0.5122E+00
     -0.735  0.2316E+00  0.5307E+00
     -0.655  0.1694E+00  0.5443E+00
     -0.575  0.1913E+00  0.5596E+00
     -0.495  0.2074E+00  0.5762E+00
     -0.415  0.1422E+00  0.5876E+00
     -0.335  0.6811E-01  0.5931E+00
     -0.255  0.8647E-01  0.6000E+00
     -0.174  0.1575E+00  0.6126E+00
     -0.094  0.1489E+00  0.6245E+00
     -0.014  0.8763E-01  0.6315E+00
      0.066  0.7602E-01  0.6376E+00
      0.146  0.8301E-01  0.6443E+00
      0.226  0.1145E+00  0.6534E+00
      0.306  0.9044E-01  0.6607E+00
      0.386  0.3876E-01  0.6638E+00
      0.466  0.4835E-01  0.6676E+00
      0.546  0.1070E+00  0.6762E+00
      0.626  0.1227E+00  0.6860E+00
      0.706  0.7305E-01  0.6919E+00
      0.786  0.3661E-01  0.6948E+00
      0.866  0.4067E-01  0.6981E+00
      0.946  0.3759E-01  0.7011E+00
      1.026  0.7043E-01  0.7067E+00
      1.106  0.1149E+00  0.7159E+00
      1.186  0.6546E-01  0.7211E+00
      1.267  0.1212E-01  0.7221E+00
      1.347  0.2960E-02  0.7224E+00
      1.427  0.2057E-01  0.7240E+00
      1.507  0.8926E-01  0.7311E+00
      1.587  0.2049E+00  0.7475E+00
      1.667  0.2633E+00  0.7686E+00
      1.747  0.2226E+00  0.7864E+00
      1.827  0.1651E+00  0.7997E+00
      1.907  0.1362E+00  0.8106E+00
      1.987  0.1903E+00  0.8258E+00
      2.067  0.2700E+00  0.8474E+00
      2.147  0.3113E+00  0.8723E+00
      2.227  0.2219E+00  0.8901E+00
      2.307  0.1144E+00  0.8993E+00
      2.387  0.1475E+00  0.9111E+00
      2.467  0.1984E+00  0.9270E+00
      2.547  0.1816E+00  0.9415E+00
      2.628  0.1871E+00  0.9565E+00
      2.708  0.2502E+00  0.9765E+00
      2.788  0.2990E+00  0.1000E+01
      2.868  0.2834E+00  0.1023E+01
      2.948  0.2218E+00  0.1041E+01
      3.028  0.1743E+00  0.1055E+01
      3.108  0.2337E+00  0.1074E+01
      3.188  0.3588E+00  0.1102E+01
      3.268  0.4204E+00  0.1136E+01
      3.348  0.3333E+00  0.1163E+01
      3.428  0.1770E+00  0.1177E+01
      3.508  0.1734E+00  0.1191E+01
      3.588  0.2847E+00  0.1213E+01
      3.668  0.3377E+00  0.1240E+01
      3.748  0.2943E+00  0.1264E+01
      3.828  0.1940E+00  0.1280E+01
      3.908  0.1494E+00  0.1292E+01
      3.988  0.2586E+00  0.1312E+01
      4.069  0.3515E+00  0.1340E+01
      4.149  0.3265E+00  0.1367E+01
      4.229  0.2777E+00  0.1389E+01
      4.309  0.1968E+00  0.1405E+01
      4.389  0.1908E+00  0.1420E+01
      4.469  0.2742E+00  0.1442E+01
      4.549  0.2449E+00  0.1461E+01
      4.629  0.1481E+00  0.1473E+01
      4.709  0.1184E+00  0.1483E+01
      4.789  0.1906E+00  0.1498E+01
      4.869  0.2447E+00  0.1518E+01
      4.949  0.1707E+00  0.1531E+01
      5.029  0.1024E+00  0.1539E+01
      5.109  0.1224E+00  0.1549E+01
      5.189  0.1464E+00  0.1561E+01
      5.269  0.1137E+00  0.1570E+01
      5.349  0.6040E-01  0.1575E+01
      5.429  0.4925E-01  0.1579E+01
      5.510  0.6880E-01  0.1584E+01
      5.590  0.5605E-01  0.1589E+01
      5.670  0.2387E-01  0.1591E+01
      5.750  0.2334E-01  0.1593E+01
      5.830  0.4396E-01  0.1596E+01
      5.910  0.3261E-01  0.1599E+01
      5.990  0.1170E-01  0.1600E+01
      6.070  0.3757E-02  0.1600E+01
      6.150  0.7096E-03  0.1600E+01
      6.230  0.1011E-03  0.1600E+01
      6.310  0.1116E-02  0.1600E+01
      6.390  0.7491E-02  0.1601E+01
      6.470  0.1838E-01  0.1602E+01
      6.550  0.2427E-01  0.1604E+01
      6.630  0.3965E-01  0.1607E+01
      6.710  0.5923E-01  0.1612E+01
      6.790  0.5888E-01  0.1617E+01
      6.871  0.6178E-01  0.1622E+01
      6.951  0.5986E-01  0.1626E+01
      7.031  0.5266E-01  0.1631E+01
      7.111  0.5953E-01  0.1635E+01
      7.191  0.1141E+00  0.1645E+01
      7.271  0.1465E+00  0.1656E+01
      7.351  0.1173E+00  0.1666E+01
      7.431  0.1155E+00  0.1675E+01
      7.511  0.1924E+00  0.1690E+01
      7.591  0.2358E+00  0.1709E+01
      7.671  0.2175E+00  0.1727E+01
      7.751  0.1648E+00  0.1740E+01
      7.831  0.1733E+00  0.1754E+01
      7.911  0.1754E+00  0.1768E+01
      7.991  0.1729E+00  0.1782E+01
      8.071  0.2545E+00  0.1802E+01
      8.151  0.3529E+00  0.1830E+01
      8.231  0.3592E+00  0.1859E+01
      8.312  0.2702E+00  0.1881E+01
      8.392  0.2299E+00  0.1899E+01
      8.472  0.1651E+00  0.1912E+01
      8.552  0.2073E+00  0.1929E+01
      8.632  0.3234E+00  0.1955E+01
      8.712  0.3057E+00  0.1979E+01
      8.792  0.2601E+00  0.2000E+01
      8.872  0.1984E+00  0.2016E+01
      8.952  0.2213E+00  0.2034E+01
      9.032  0.2642E+00  0.2055E+01
      9.112  0.2511E+00  0.2075E+01
      9.192  0.3762E+00  0.2105E+01
      9.272  0.5404E+00  0.2148E+01
      9.352  0.4361E+00  0.2183E+01
      9.432  0.2696E+00  0.2205E+01
      9.512  0.2952E+00  0.2228E+01
      9.592  0.4106E+00  0.2261E+01
      9.673  0.4091E+00  0.2294E+01
      9.753  0.3302E+00  0.2320E+01
      9.833  0.2314E+00  0.2339E+01
      9.913  0.1568E+00  0.2352E+01
      9.993  0.1635E+00  0.2365E+01
     10.073  0.1614E+00  0.2378E+01
     10.153  0.1991E+00  0.2393E+01
     10.233  0.2723E+00  0.2415E+01
     10.313  0.2629E+00  0.2436E+01
     10.393  0.1928E+00  0.2452E+01
     10.473  0.1753E+00  0.2466E+01
     10.553  0.2771E+00  0.2488E+01
     10.633  0.4455E+00  0.2524E+01
     10.713  0.4499E+00  0.2560E+01
     10.793  0.3059E+00  0.2584E+01
     10.873  0.2372E+00  0.2603E+01
     10.953  0.2624E+00  0.2624E+01
     11.033  0.3097E+00  0.2649E+01
     11.114  0.2373E+00  0.2668E+01
     11.194  0.1733E+00  0.2682E+01
     11.274  0.1713E+00  0.2696E+01
     11.354  0.1483E+00  0.2707E+01
     11.434  0.1180E+00  0.2717E+01
     11.514  0.1374E+00  0.2728E+01
     11.594  0.1726E+00  0.2742E+01
     11.674  0.2546E+00  0.2762E+01
     11.754  0.3158E+00  0.2787E+01
     11.834  0.2156E+00  0.2805E+01
     11.914  0.1015E+00  0.2813E+01
     11.994  0.1322E+00  0.2823E+01
     12.074  0.2123E+00  0.2840E+01
     12.154  0.2506E+00  0.2860E+01
     12.234  0.2483E+00  0.2880E+01
     12.314  0.2648E+00  0.2901E+01
     12.394  0.3049E+00  0.2926E+01
     12.474  0.2502E+00  0.2946E+01
     12.555  0.1310E+00  0.2956E+01
     12.635  0.1383E+00  0.2967E+01
     12.715  0.2020E+00  0.2984E+01
     12.795  0.1612E+00  0.2997E+01
     12.875  0.1162E+00  0.3006E+01
     12.955  0.1107E+00  0.3015E+01
     13.035  0.6400E-01  0.3020E+01
     13.115  0.7791E-01  0.3026E+01
     13.195  0.1560E+00  0.3039E+01
     13.275  0.1770E+00  0.3053E+01
     13.355  0.1531E+00  0.3065E+01
     13.435  0.9340E-01  0.3072E+01
     13.515  0.5489E-01  0.3077E+01
     13.595  0.7241E-01  0.3083E+01
     13.675  0.1680E+00  0.3096E+01
     13.755  0.2056E+00  0.3113E+01
     13.835  0.1739E+00  0.3126E+01
     13.916  0.1568E+00  0.3139E+01
     13.996  0.1111E+00  0.3148E+01
     14.076  0.9891E-01  0.3156E+01
     14.156  0.1532E+00  0.3168E+01
     14.236  0.1311E+00  0.3179E+01
     14.316  0.3853E-01  0.3182E+01
     14.396  0.3562E-02  0.3182E+01
     14.476  0.1001E-03  0.3182E+01
     14.556  0.8353E-06  0.3182E+01
     14.636  0.2031E-08  0.3182E+01
     14.716  0.1420E-11  0.3182E+01
     14.796  0.6402E-15  0.3182E+01
     14.876  0.1532E-11  0.3182E+01
     14.956  0.1750E-08  0.3182E+01
     15.036  0.5743E-06  0.3182E+01
     15.116  0.5491E-04  0.3182E+01
     15.196  0.1561E-02  0.3182E+01
     15.276  0.1363E-01  0.3183E+01
     15.357  0.3923E-01  0.3186E+01
     15.437  0.4717E-01  0.3190E+01
     15.517  0.4090E-01  0.3193E+01
     15.597  0.3016E-01  0.3196E+01
     15.677  0.2166E-01  0.3198E+01
     15.757  0.2021E-01  0.3199E+01
     15.837  0.9217E-02  0.3200E+01
     15.917  0.1377E-02  0.3200E+01
     15.997  0.6305E-04  0.3200E+01
     16.077  0.8611E-06  0.3200E+01
     16.157  0.3437E-08  0.3200E+01
     16.237  0.3952E-11  0.3200E+01
     16.317  0.1295E-14  0.3200E+01
     16.397  0.0000E+00  0.3200E+01
     16.477  0.0000E+00  0.3200E+01
     16.557  0.0000E+00  0.3200E+01
     16.637  0.0000E+00  0.3200E+01
     16.718  0.0000E+00  0.3200E+01
     16.798  0.0000E+00  0.3200E+01
