    2    2    5    1
  0.2079688E+02  0.3889087E-09  0.3889087E-09  0.3889087E-09  0.5000000E-15
  1.000000000000000E-004
  CAR 
 diamond Si                              
      8     56      8
 
  0.0000000E+00  0.0000000E+00  0.0000000E+00  0.7513148E-03
    1       -6.127794
    2        5.963473
    3        5.963482
    4        5.963482
    5        8.496895
    6        8.496907
    7        8.496907
    8        9.361864
 
  0.9090909E-01  0.0000000E+00  0.0000000E+00  0.6010518E-02
    1       -6.017782
    2        4.962352
    3        5.792064
    4        5.792072
    5        8.530918
    6        8.750088
    7        8.750100
    8       10.132865
 
  0.1818182E+00  0.0000000E+00  0.0000000E+00  0.6010518E-02
    1       -5.692121
    2        3.257803
    3        5.442603
    4        5.442610
    5        8.221109
    6        9.230233
    7        9.230249
    8       11.698156
 
  0.2727273E+00  0.0000000E+00  0.0000000E+00  0.6010518E-02
    1       -5.166652
    2        1.571605
    3        5.113663
    4        5.113672
    5        7.873570
    6        9.470973
    7        9.470999
    8       13.328876
 
  0.3636364E+00  0.0000000E+00  0.0000000E+00  0.6010518E-02
    1       -4.491725
    2        0.087959
    3        4.879780
    4        4.879789
    5        7.611223
    6        9.396064
    7        9.396096
    8       13.696609
 
  0.4545455E+00  0.0000000E+00  0.0000000E+00  0.6010518E-02
    1       -3.861428
    2       -0.953457
    3        4.760902
    4        4.760912
    5        7.473865
    6        9.278911
    7        9.278944
    8       13.528556
 
  0.9090909E-01  0.9090909E-01  0.0000000E+00  0.4507889E-02
    1       -5.980949
    2        5.161873
    3        5.453678
    4        5.453683
    5        8.156022
    6        9.186199
    7        9.186206
    8       10.084229
 
  0.1818182E+00  0.9090909E-01  0.0000000E+00  0.1803156E-01
    1       -5.726479
    2        3.773661
    3        5.046367
    4        5.240906
    5        8.189449
    6        9.264750
    7        9.787759
    8       10.930845
 
  0.2727273E+00  0.9090909E-01  0.0000000E+00  0.1803156E-01
    1       -5.265157
    2        2.123656
    3        4.722301
    4        4.859389
    5        8.330145
    6        9.244404
    7       10.137677
    8       11.277844
 
  0.3636364E+00  0.9090909E-01  0.0000000E+00  0.1803156E-01
    1       -4.630530
    2        0.586925
    3        4.469775
    4        4.534393
    5        8.187190
    6        9.247770
    7       10.051681
    8       12.059175
 
  0.4545455E+00  0.9090909E-01  0.0000000E+00  0.1803156E-01
    1       -3.941854
    2       -0.634348
    3        4.165608
    4        4.496532
    5        8.052505
    6        9.186934
    7        9.801185
    8       13.292097
 
 -0.4545455E+00  0.9090909E-01  0.0000000E+00  0.1803156E-01
    1       -3.660961
    2       -1.049195
    3        3.982329
    4        4.601846
    5        8.029586
    6        9.236329
    7        9.606632
    8       13.901682
 
 -0.3636364E+00  0.9090909E-01  0.0000000E+00  0.1803156E-01
    1       -4.162466
    2       -0.277907
    3        3.942579
    4        4.835389
    5        8.138321
    6        9.431668
    7        9.529432
    8       13.659607
 
 -0.2727273E+00  0.9090909E-01  0.0000000E+00  0.1803156E-01
    1       -4.858727
    2        1.079486
    3        4.061956
    4        5.166882
    5        8.360807
    6        9.473830
    7        9.662319
    8       12.659252
 
 -0.1818182E+00  0.9090909E-01  0.0000000E+00  0.1803156E-01
    1       -5.441711
    2        2.658905
    3        4.359539
    4        5.539158
    5        8.661180
    6        9.201072
    7        9.560040
    8       11.803958
 
 -0.9090909E-01  0.9090909E-01  0.0000000E+00  0.9015778E-02
    1       -5.835705
    2        4.156346
    3        4.934103
    4        5.820059
    5        8.796926
    6        8.912284
    7        8.960324
    8       10.987101
 
  0.1818182E+00  0.1818182E+00  0.0000000E+00  0.4507889E-02
    1       -5.543425
    2        3.655100
    3        4.600793
    4        4.600798
    5        7.473435
    6       10.053244
    7       10.558626
    8       10.558634
 
  0.2727273E+00  0.1818182E+00  0.0000000E+00  0.1803156E-01
    1       -5.149730
    2        2.472540
    3        4.175463
    4        4.251406
    5        7.526765
    6        9.605238
    7       10.837749
    8       11.146209
 
  0.3636364E+00  0.1818182E+00  0.0000000E+00  0.1803156E-01
    1       -4.567695
    2        1.068544
    3        3.630937
    4        4.052822
    5        7.762079
    6        9.975182
    7       10.632429
    8       11.214090
 
  0.4545455E+00  0.1818182E+00  0.0000000E+00  0.1803156E-01
    1       -3.870783
    2       -0.199974
    3        3.144212
    4        4.022004
    5        7.798740
    6       10.401079
    7       10.943472
    8       11.210832
 
 -0.4545455E+00  0.1818182E+00  0.0000000E+00  0.1803156E-01
    1       -3.370375
    2       -0.933889
    3        2.799520
    4        4.157475
    5        7.903830
    6       10.260668
    7       10.639262
    8       12.859211
 
 -0.3636364E+00  0.1818182E+00  0.0000000E+00  0.1803156E-01
    1       -3.666293
    2       -0.508403
    3        2.638596
    4        4.443686
    5        8.173391
    6       10.242144
    7       10.411718
    8       13.695635
 
 -0.2727273E+00  0.1818182E+00  0.0000000E+00  0.1803156E-01
    1       -4.356560
    2        0.639900
    3        2.712901
    4        4.841279
    5        8.568872
    6       10.176444
    7       10.286374
    8       12.298872
 
 -0.1818182E+00  0.1818182E+00  0.0000000E+00  0.9015778E-02
    1       -4.985844
    2        1.857136
    3        3.199697
    4        5.266321
    5        8.931479
    6        9.690571
    7        9.977381
    8       11.608837
 
  0.2727273E+00  0.2727273E+00  0.0000000E+00  0.4507889E-02
    1       -4.823411
    2        2.021090
    3        3.865922
    4        3.865927
    5        6.856076
    6        8.661304
    7       12.142970
    8       12.142980
 
  0.3636364E+00  0.2727273E+00  0.0000000E+00  0.1803156E-01
    1       -4.300549
    2        1.051836
    3        3.307640
    4        3.630901
    5        6.991652
    6        8.368420
    7       12.440587
    8       12.606816
 
  0.4545455E+00  0.2727273E+00  0.0000000E+00  0.1803156E-01
    1       -3.626772
    2        0.000382
    3        2.554945
    4        3.569468
    5        7.183683
    6        9.152524
    7       12.276766
    8       12.454788
 
 -0.4545455E+00  0.2727273E+00  0.0000000E+00  0.1803156E-01
    1       -2.993435
    2       -0.826682
    3        1.965116
    4        3.684975
    5        7.317931
    6       10.651118
    7       12.106684
    8       12.114334
 
 -0.3636364E+00  0.2727273E+00  0.0000000E+00  0.1803156E-01
    1       -3.048853
    2       -0.746624
    3        1.668680
    4        3.966553
    5        7.620450
    6       11.751708
    7       11.759499
    8       12.699917
 
 -0.2727273E+00  0.2727273E+00  0.0000000E+00  0.9015778E-02
    1       -3.701354
    2        0.031776
    3        1.829633
    4        4.379617
    5        8.089544
    6       11.163763
    7       11.489028
    8       12.378432
 
  0.3636364E+00  0.3636364E+00  0.0000000E+00  0.4507889E-02
    1       -3.836772
    2        0.383235
    3        3.350059
    4        3.350064
    5        6.481228
    6        7.495138
    7       13.817363
    8       13.817374
 
  0.4545455E+00  0.3636364E+00  0.0000000E+00  0.1803156E-01
    1       -3.203218
    2       -0.443141
    3        2.788877
    4        3.243785
    5        6.689777
    6        7.524524
    7       14.142759
    8       14.154291
 
 -0.4545455E+00  0.3636364E+00  0.0000000E+00  0.1803156E-01
    1       -2.511696
    2       -1.172529
    3        1.974739
    4        3.318891
    5        6.855268
    6        8.749388
    7       13.847566
    8       14.011548
 
 -0.3636364E+00  0.3636364E+00  0.0000000E+00  0.9015778E-02
    1       -2.436855
    2       -1.211754
    3        1.469834
    4        3.569109
    5        7.143267
    6       10.498685
    7       13.168244
    8       13.706325
 
  0.4545455E+00  0.4545455E+00  0.0000000E+00  0.4507889E-02
    1       -2.610386
    2       -1.184704
    3        3.087490
    4        3.087495
    5        6.430594
    6        6.753794
    7       15.537436
    8       15.537440
 
 -0.4545455E+00  0.4545455E+00  0.0000000E+00  0.9015778E-02
    1       -1.950408
    2       -1.840444
    3        2.618652
    4        3.113295
    5        6.611227
    6        7.217800
    7       15.459295
    8       15.705881
 
  0.2727273E+00  0.1818182E+00  0.9090909E-01  0.1803156E-01
    1       -5.402860
    2        2.915184
    3        4.071377
    4        5.125516
    5        8.242469
    6        9.601144
    7       10.338103
    8       10.689459
 
  0.3636364E+00  0.1818182E+00  0.9090909E-01  0.3606311E-01
    1       -4.880309
    2        1.569981
    3        3.501381
    4        4.796996
    5        8.564478
    6        9.529478
    7       10.627057
    8       10.835608
 
  0.4545455E+00  0.1818182E+00  0.9090909E-01  0.3606311E-01
    1       -4.207115
    2        0.195278
    3        3.246609
    4        4.442862
    5        8.610334
    6        9.270666
    7       10.759228
    8       11.671151
 
 -0.4545455E+00  0.1818182E+00  0.9090909E-01  0.3606311E-01
    1       -3.572759
    2       -0.814609
    3        3.149403
    4        4.225536
    5        8.602852
    6        9.031137
    7       10.686136
    8       13.159931
 
  0.3636364E+00  0.2727273E+00  0.9090909E-01  0.1803156E-01
    1       -4.692520
    2        1.624600
    3        3.339964
    4        4.087291
    5        7.655765
    6        9.182593
    7       10.957639
    8       12.017560
 
  0.4545455E+00  0.2727273E+00  0.9090909E-01  0.3606311E-01
    1       -4.062061
    2        0.522852
    3        2.751771
    4        3.761068
    5        8.016846
    6        9.605646
    7       10.635889
    8       12.409770
 
 -0.4545455E+00  0.2727273E+00  0.9090909E-01  0.3606311E-01
    1       -3.370841
    2       -0.516052
    3        2.361210
    4        3.599681
    5        8.146947
    6       10.192711
    7       11.031688
    8       12.362386
 
 -0.3636364E+00  0.2727273E+00  0.9090909E-01  0.3606311E-01
    1       -3.093123
    2       -0.879298
    3        2.124493
    4        3.692551
    5        8.367656
    6        9.927419
    7       12.237102
    8       12.725066
 
 -0.2727273E+00  0.2727273E+00  0.9090909E-01  0.3606311E-01
    1       -3.616475
    2       -0.165848
    3        2.106244
    4        3.997618
    5        8.747432
    6        9.733049
    7       11.492969
    8       12.155325
 
 -0.1818182E+00  0.2727273E+00  0.9090909E-01  0.1803156E-01
    1       -4.308407
    2        0.838782
    3        2.486631
    4        4.426471
    5        9.218426
    6        9.318635
    7       10.566887
    8       11.706756
 
  0.4545455E+00  0.3636364E+00  0.9090909E-01  0.1803156E-01
    1       -3.724136
    2        0.244966
    3        2.854790
    4        3.259087
    5        7.281160
    6        8.120858
    7       12.352123
    8       13.786077
 
 -0.4545455E+00  0.3636364E+00  0.9090909E-01  0.3606311E-01
    1       -3.028029
    2       -0.591212
    3        2.184463
    4        3.073741
    5        7.622719
    6        8.968700
    7       11.985779
    8       14.154178
 
 -0.3636364E+00  0.3636364E+00  0.9090909E-01  0.3606311E-01
    1       -2.541506
    2       -1.105871
    3        1.642458
    4        3.193953
    5        7.841076
    6       10.558417
    7       11.681506
    8       13.294590
 
 -0.2727273E+00  0.3636364E+00  0.9090909E-01  0.1803156E-01
    1       -2.936999
    2       -0.698421
    3        1.533996
    4        3.526666
    5        8.226637
    6       11.009429
    7       11.763604
    8       12.658028
 
 -0.4545455E+00  0.4545455E+00  0.9090909E-01  0.1803156E-01
    1       -2.533423
    2       -1.179184
    3        2.658405
    4        2.783343
    5        7.198205
    6        7.462085
    7       13.893194
    8       15.344876
 
 -0.3636364E+00  0.4545455E+00  0.9090909E-01  0.1803156E-01
    1       -2.010847
    2       -1.635891
    3        1.964622
    4        2.857788
    5        7.481154
    6        8.761790
    7       13.428448
    8       13.658902
 
 -0.4545455E+00  0.3636364E+00  0.1818182E+00  0.1803156E-01
    1       -3.404112
    2       -0.158752
    3        2.066145
    4        3.274153
    5        8.980226
    6        9.586935
    7       10.262188
    8       13.676753
 
 -0.3636364E+00  0.3636364E+00  0.1818182E+00  0.3606311E-01
    1       -2.751591
    2       -0.875053
    3        1.777760
    4        2.941353
    5        9.330642
    6        9.731287
    7       11.020487
    8       12.918829
 
 -0.3636364E+00  0.4545455E+00  0.1818182E+00  0.1803156E-01
    1       -2.337863
    2       -1.218489
    3        2.012321
    4        2.404267
    5        8.883823
    6        9.082297
    7       11.563526
    8       13.166859
 
 -0.2727273E+00  0.4545455E+00  0.1818182E+00  0.1803156E-01
    1       -2.129204
    2       -1.387748
    3        1.718578
    4        2.442862
    5        9.232300
    6       10.513631
    7       11.325478
    8       11.352447
