       N       E                     dE             d eps       ncg     rms          rms(c)
DAV:   1    -0.288569514233E+01   -0.28857E+01   -0.20049E+03   912   0.422E+02
DAV:   2    -0.120018564343E+02   -0.91162E+01   -0.88757E+01  1440   0.559E+01
DAV:   3    -0.120964629719E+02   -0.94607E-01   -0.94607E-01  1224   0.702E+00
DAV:   4    -0.120966865319E+02   -0.22356E-03   -0.22356E-03  1360   0.323E-01
DAV:   5    -0.120966866696E+02   -0.13771E-06   -0.13778E-06  1264   0.751E-03    0.294E+00
DAV:   6    -0.119364890317E+02    0.16020E+00   -0.10339E-01  1072   0.159E+00    0.171E+00
DAV:   7    -0.118611231944E+02    0.75366E-01   -0.18294E-01  1064   0.216E+00    0.152E-01
DAV:   8    -0.118612648327E+02   -0.14164E-03   -0.48187E-03   984   0.503E-01    0.273E-02
DAV:   9    -0.118612339039E+02    0.30929E-04   -0.14643E-04  1112   0.756E-02
   1 F= -.11861234E+02 E0= -.11861234E+02  d E =-.118612E+02
       N       E                     dE             d eps       ncg     rms          rms(c)
DAV:   1    -0.119372290204E+02   -0.75964E-01   -0.19332E+00  1072   0.792E+00    0.903E-01
DAV:   2    -0.118987713084E+02    0.38458E-01   -0.37286E-02  1160   0.122E+00    0.499E-01
DAV:   3    -0.118812975535E+02    0.17474E-01   -0.40900E-02  1040   0.102E+00    0.726E-02
DAV:   4    -0.118811180337E+02    0.17952E-03   -0.40251E-04  1280   0.180E-01    0.131E-02
DAV:   5    -0.118811143135E+02    0.37201E-05   -0.21023E-06   488   0.122E-02
   2 F= -.11881114E+02 E0= -.11881111E+02  d E =-.198804E-01
       N       E                     dE             d eps       ncg     rms          rms(c)
DAV:   1    -0.119050662180E+02   -0.23948E-01   -0.28042E-01  1088   0.295E+00    0.343E-01
DAV:   2    -0.118993688260E+02    0.56974E-02   -0.55069E-03  1128   0.471E-01    0.189E-01
DAV:   3    -0.118967524376E+02    0.26164E-02   -0.61923E-03  1056   0.393E-01    0.267E-02
DAV:   4    -0.118967291493E+02    0.23288E-04   -0.57193E-05   656   0.679E-02
   3 F= -.11896729E+02 E0= -.11896728E+02  d E =-.354952E-01
