 vasp.5.3.5 31Mar14 (build Feb  5 2015 19:39:53) complex                        
  
 executed on              HPCUofA date 2017.11.12  22:49:20
 running on    1 total cores
 distrk:  each k-point on    1 cores,    1 groups
 distr:  one band on NCORES_PER_BAND=   1 cores,    1 groups


--------------------------------------------------------------------------------------------------------


 INCAR:
 POTCAR:   PAW Si 02Apr1999                       
 POTCAR:   PAW Si 02Apr1999                       
   VRHFIN =Si: s2p2                                                             
   LEXCH  = CA                                                                  
   EATOM  =   103.4338 eV,    7.6022 Ry                                         
                                                                                
   TITEL  = PAW Si 02Apr1999                                                    
   LULTRA =        F    use ultrasoft PP ?                                      
   IUNSCR =        1    unscreen: 0-lin 1-nonlin 2-no                           
   RPACOR =    1.500    partial core radius                                     
   POMASS =   28.085; ZVAL   =    4.000    mass and valenz                      
   RCORE  =    1.900    outmost cutoff radius                                   
   RWIGS  =    2.480; RWIGS  =    1.312    wigner-seitz radius (au A)           
   ENMAX  =  245.704; ENMIN  =  184.278 eV                                      
   ICORE  =        2    local potential                                         
   LCOR   =        T    correct aug charges                                     
   LPAW   =        T    paw PP                                                  
   EAUG   =  322.069                                                            
   DEXC   =    -.006                                                            
   RMAX   =    2.941    core radius for proj-oper                               
   RAUG   =    1.300    factor for augmentation sphere                          
   RDEP   =    1.993    core radius for depl-charge                             
   QCUT   =   -4.250; QGAM   =    8.499    optimization parameters              
                                                                                
   Description                                                                  
     l     E      TYP  RCUT    TYP  RCUT                                        
     0   .000     23  1.900                                                     
     0   .000     23  1.900                                                     
     1   .000     23  1.900                                                     
     1   .000     23  1.900                                                     
     2   .000      7  1.900                                                     
  local pseudopotential read in
  partial core-charges read in
  atomic valenz-charges read in
  non local Contribution for L=           0  read in
    real space projection operators read in
  non local Contribution for L=           0  read in
    real space projection operators read in
  non local Contribution for L=           1  read in
    real space projection operators read in
  non local Contribution for L=           1  read in
    real space projection operators read in
    PAW grid and wavefunctions read in
 
   number of l-projection  operators is LMAX  =           4
   number of lm-projection operators is LMMAX =           8
 
 PAW Si 02Apr1999                       :
 energy of atom  1       EATOM= -103.4338
 kinetic energy error for atom=    0.0062 (will be added to EATOM!!)
 
 
 POSCAR: diamond Si:                             
  positions in cartesian coordinates
  No initial velocities read in
 exchange correlation table for  LEXCH =        2
   RHO(1)=    0.500       N(1)  =     2000
   RHO(2)=  100.500       N(2)  =     4000
 


--------------------------------------------------------------------------------------------------------


 ion  position               nearest neighbor table
   1  0.875  0.875  0.875-   2 2.38   2 2.38   2 2.38   2 2.38
   2  0.125  0.125  0.125-   1 2.38   1 2.38   1 2.38   1 2.38
 
  LATTYP: Found a face centered cubic cell.
 ALAT       =     5.5000000000
  
  Lattice vectors:
  
 A1 = (   0.0000000000,   2.7500000000,   2.7500000000)
 A2 = (   2.7500000000,   0.0000000000,   2.7500000000)
 A3 = (   2.7500000000,   2.7500000000,   0.0000000000)


Analysis of symmetry for initial positions (statically):
=====================================================================
 Subroutine PRICEL returns:
 Original cell was already a primitive cell.
 

 Routine SETGRP: Setting up the symmetry group for a 
 face centered cubic supercell.


 Subroutine GETGRP returns: Found 48 space group operations
 (whereof 12 operations were pure point group operations)
 out of a pool of 48 trial point group operations.


The static configuration has the point symmetry D_3d.
 The point group associated with its full space group is O_h .


Analysis of symmetry for dynamics (positions and initial velocities):
=====================================================================
 Subroutine PRICEL returns:
 Original cell was already a primitive cell.
 

 Routine SETGRP: Setting up the symmetry group for a 
 face centered cubic supercell.


 Subroutine GETGRP returns: Found 48 space group operations
 (whereof 12 operations were pure point group operations)
 out of a pool of 48 trial point group operations.


The dynamic configuration has the point symmetry D_3d.
 The point group associated with its full space group is O_h .
 
 
 KPOINTS: k-points                                

Automatic generation of k-mesh.
Space group operators:
 irot       det(A)        alpha          n_x          n_y          n_z        tau_x        tau_y        tau_z
    1     1.000000     0.000000     1.000000     0.000000     0.000000     0.000000     0.000000     0.000000
    2    -1.000000     0.000000     1.000000     0.000000     0.000000     0.000000     0.000000     0.000000
    3     1.000000   120.000000    -0.577350    -0.577350    -0.577350     0.000000     0.000000     0.000000
    4    -1.000000   120.000000    -0.577350    -0.577350    -0.577350     0.000000     0.000000     0.000000
    5     1.000000   120.000000     0.577350     0.577350     0.577350     0.000000     0.000000     0.000000
    6    -1.000000   120.000000     0.577350     0.577350     0.577350     0.000000     0.000000     0.000000
    7     1.000000   180.000000     0.000000    -0.707107     0.707107     0.000000     0.000000     0.000000
    8    -1.000000   180.000000     0.000000    -0.707107     0.707107     0.000000     0.000000     0.000000
    9     1.000000   180.000000     0.707107    -0.707107     0.000000     0.000000     0.000000     0.000000
   10    -1.000000   180.000000     0.707107    -0.707107     0.000000     0.000000     0.000000     0.000000
   11     1.000000   180.000000     0.707107     0.000000    -0.707107     0.000000     0.000000     0.000000
   12    -1.000000   180.000000     0.707107     0.000000    -0.707107     0.000000     0.000000     0.000000
   13     1.000000    90.000000     0.000000     0.000000    -1.000000     0.500000     0.000000     0.000000
   14    -1.000000    90.000000     0.000000     0.000000    -1.000000     0.500000     0.000000     0.000000
   15     1.000000   180.000000     0.000000     0.707107     0.707107     0.500000     0.000000     0.000000
   16    -1.000000   180.000000     0.000000     0.707107     0.707107     0.500000     0.000000     0.000000
   17     1.000000    90.000000     0.000000     1.000000     0.000000     0.500000     0.000000     0.000000
   18    -1.000000    90.000000     0.000000     1.000000     0.000000     0.500000     0.000000     0.000000
   19     1.000000   180.000000     0.000000     0.000000     1.000000     0.000000     0.000000     0.500000
   20    -1.000000   180.000000     0.000000     0.000000     1.000000     0.000000     0.000000     0.500000
   21     1.000000   120.000000    -0.577350     0.577350     0.577350     0.000000     0.000000     0.500000
   22    -1.000000   120.000000    -0.577350     0.577350     0.577350     0.000000     0.000000     0.500000
   23     1.000000   120.000000    -0.577350     0.577350    -0.577350     0.000000     0.000000     0.500000
   24    -1.000000   120.000000    -0.577350     0.577350    -0.577350     0.000000     0.000000     0.500000
   25     1.000000    90.000000     0.000000     0.000000     1.000000     0.000000     0.500000     0.000000
   26    -1.000000    90.000000     0.000000     0.000000     1.000000     0.000000     0.500000     0.000000
   27     1.000000    90.000000    -1.000000     0.000000     0.000000     0.000000     0.500000     0.000000
   28    -1.000000    90.000000    -1.000000     0.000000     0.000000     0.000000     0.500000     0.000000
   29     1.000000   180.000000     0.707107     0.000000     0.707107     0.000000     0.500000     0.000000
   30    -1.000000   180.000000     0.707107     0.000000     0.707107     0.000000     0.500000     0.000000
   31     1.000000   120.000000     0.577350    -0.577350     0.577350     0.500000     0.000000     0.000000
   32    -1.000000   120.000000     0.577350    -0.577350     0.577350     0.500000     0.000000     0.000000
   33     1.000000   120.000000    -0.577350    -0.577350     0.577350     0.500000     0.000000     0.000000
   34    -1.000000   120.000000    -0.577350    -0.577350     0.577350     0.500000     0.000000     0.000000
   35     1.000000   180.000000     1.000000     0.000000     0.000000     0.500000     0.000000     0.000000
   36    -1.000000   180.000000     1.000000     0.000000     0.000000     0.500000     0.000000     0.000000
   37     1.000000    90.000000     0.000000    -1.000000     0.000000     0.000000     0.000000     0.500000
   38    -1.000000    90.000000     0.000000    -1.000000     0.000000     0.000000     0.000000     0.500000
   39     1.000000   180.000000     0.707107     0.707107     0.000000     0.000000     0.000000     0.500000
   40    -1.000000   180.000000     0.707107     0.707107     0.000000     0.000000     0.000000     0.500000
   41     1.000000    90.000000     1.000000     0.000000     0.000000     0.000000     0.000000     0.500000
   42    -1.000000    90.000000     1.000000     0.000000     0.000000     0.000000     0.000000     0.500000
   43     1.000000   120.000000     0.577350    -0.577350    -0.577350     0.000000     0.500000     0.000000
   44    -1.000000   120.000000     0.577350    -0.577350    -0.577350     0.000000     0.500000     0.000000
   45     1.000000   180.000000     0.000000     1.000000     0.000000     0.000000     0.500000     0.000000
   46    -1.000000   180.000000     0.000000     1.000000     0.000000     0.000000     0.500000     0.000000
   47     1.000000   120.000000     0.577350     0.577350    -0.577350     0.000000     0.500000     0.000000
   48    -1.000000   120.000000     0.577350     0.577350    -0.577350     0.000000     0.500000     0.000000
 
 Subroutine IBZKPT returns following result:
 ===========================================
 
 Found     56 irreducible k-points:
 
 Following reciprocal coordinates:
            Coordinates               Weight
  0.000000  0.000000  0.000000      1.000000
  0.090909  0.000000  0.000000      8.000000
  0.181818  0.000000  0.000000      8.000000
  0.272727  0.000000  0.000000      8.000000
  0.363636  0.000000  0.000000      8.000000
  0.454545  0.000000  0.000000      8.000000
  0.090909  0.090909  0.000000      6.000000
  0.181818  0.090909  0.000000     24.000000
  0.272727  0.090909  0.000000     24.000000
  0.363636  0.090909  0.000000     24.000000
  0.454545  0.090909  0.000000     24.000000
 -0.454545  0.090909  0.000000     24.000000
 -0.363636  0.090909  0.000000     24.000000
 -0.272727  0.090909  0.000000     24.000000
 -0.181818  0.090909  0.000000     24.000000
 -0.090909  0.090909  0.000000     12.000000
  0.181818  0.181818  0.000000      6.000000
  0.272727  0.181818  0.000000     24.000000
  0.363636  0.181818  0.000000     24.000000
  0.454545  0.181818  0.000000     24.000000
 -0.454545  0.181818  0.000000     24.000000
 -0.363636  0.181818  0.000000     24.000000
 -0.272727  0.181818  0.000000     24.000000
 -0.181818  0.181818  0.000000     12.000000
  0.272727  0.272727  0.000000      6.000000
  0.363636  0.272727  0.000000     24.000000
  0.454545  0.272727  0.000000     24.000000
 -0.454545  0.272727  0.000000     24.000000
 -0.363636  0.272727  0.000000     24.000000
 -0.272727  0.272727  0.000000     12.000000
  0.363636  0.363636  0.000000      6.000000
  0.454545  0.363636  0.000000     24.000000
 -0.454545  0.363636  0.000000     24.000000
 -0.363636  0.363636  0.000000     12.000000
  0.454545  0.454545  0.000000      6.000000
 -0.454545  0.454545  0.000000     12.000000
  0.272727  0.181818  0.090909     24.000000
  0.363636  0.181818  0.090909     48.000000
  0.454545  0.181818  0.090909     48.000000
 -0.454545  0.181818  0.090909     48.000000
  0.363636  0.272727  0.090909     24.000000
  0.454545  0.272727  0.090909     48.000000
 -0.454545  0.272727  0.090909     48.000000
 -0.363636  0.272727  0.090909     48.000000
 -0.272727  0.272727  0.090909     48.000000
 -0.181818  0.272727  0.090909     24.000000
  0.454545  0.363636  0.090909     24.000000
 -0.454545  0.363636  0.090909     48.000000
 -0.363636  0.363636  0.090909     48.000000
 -0.272727  0.363636  0.090909     24.000000
 -0.454545  0.454545  0.090909     24.000000
 -0.363636  0.454545  0.090909     24.000000
 -0.454545  0.363636  0.181818     24.000000
 -0.363636  0.363636  0.181818     48.000000
 -0.363636  0.454545  0.181818     24.000000
 -0.272727  0.454545  0.181818     24.000000
 
 Following cartesian coordinates:
            Coordinates               Weight
  0.000000  0.000000  0.000000      1.000000
 -0.090909  0.090909  0.090909      8.000000
 -0.181818  0.181818  0.181818      8.000000
 -0.272727  0.272727  0.272727      8.000000
 -0.363636  0.363636  0.363636      8.000000
 -0.454545  0.454545  0.454545      8.000000
  0.000000  0.000000  0.181818      6.000000
 -0.090909  0.090909  0.272727     24.000000
 -0.181818  0.181818  0.363636     24.000000
 -0.272727  0.272727  0.454545     24.000000
 -0.363636  0.363636  0.545455     24.000000
  0.545455 -0.545455 -0.363636     24.000000
  0.454545 -0.454545 -0.272727     24.000000
  0.363636 -0.363636 -0.181818     24.000000
  0.272727 -0.272727 -0.090909     24.000000
  0.181818 -0.181818  0.000000     12.000000
  0.000000  0.000000  0.363636      6.000000
 -0.090909  0.090909  0.454545     24.000000
 -0.181818  0.181818  0.545455     24.000000
 -0.272727  0.272727  0.636364     24.000000
  0.636364 -0.636364 -0.272727     24.000000
  0.545455 -0.545455 -0.181818     24.000000
  0.454545 -0.454545 -0.090909     24.000000
  0.363636 -0.363636  0.000000     12.000000
  0.000000  0.000000  0.545455      6.000000
 -0.090909  0.090909  0.636364     24.000000
 -0.181818  0.181818  0.727273     24.000000
  0.727273 -0.727273 -0.181818     24.000000
  0.636364 -0.636364 -0.090909     24.000000
  0.545455 -0.545455  0.000000     12.000000
  0.000000  0.000000  0.727273      6.000000
 -0.090909  0.090909  0.818182     24.000000
  0.818182 -0.818182 -0.090909     24.000000
  0.727273 -0.727273  0.000000     12.000000
  0.000000  0.000000  0.909091      6.000000
  0.909091 -0.909091 -0.000000     12.000000
 -0.000000  0.181818  0.363636     24.000000
 -0.090909  0.272727  0.454545     48.000000
 -0.181818  0.363636  0.545455     48.000000
  0.727273 -0.545455 -0.363636     48.000000
  0.000000  0.181818  0.545455     24.000000
 -0.090909  0.272727  0.636364     48.000000
  0.818182 -0.636364 -0.272727     48.000000
  0.727273 -0.545455 -0.181818     48.000000
  0.636364 -0.454545 -0.090909     48.000000
  0.545455 -0.363636  0.000000     24.000000
 -0.000000  0.181818  0.727273     24.000000
  0.909091 -0.727273 -0.181818     48.000000
  0.818182 -0.636364 -0.090909     48.000000
  0.727273 -0.545455  0.000000     24.000000
  1.000000 -0.818182 -0.090909     24.000000
  0.909091 -0.727273 -0.000000     24.000000
  1.000000 -0.636364 -0.272727     24.000000
  0.909091 -0.545455 -0.181818     48.000000
  1.000000 -0.636364 -0.090909     24.000000
  0.909091 -0.545455 -0.000000     24.000000
 


--------------------------------------------------------------------------------------------------------




 Dimension of arrays:
   k-points           NKPTS =     56   k-points in BZ     NKDIM =     56   number of bands    NBANDS=      8
   number of dos      NEDOS =    301   number of ions     NIONS =      2
   non local maximal  LDIM  =      4   non local SUM 2l+1 LMDIM =      8
   total plane-waves  NPLWV =   4096
   max r-space proj   IRMAX =      1   max aug-charges    IRDMAX=   3492
   dimension x,y,z NGX =    16 NGY =   16 NGZ =   16
   dimension x,y,z NGXF=    32 NGYF=   32 NGZF=   32
   support grid    NGXF=    32 NGYF=   32 NGZF=   32
   ions per type =               2
 NGX,Y,Z   is equivalent  to a cutoff of   6.84,  6.84,  6.84 a.u.
 NGXF,Y,Z  is equivalent  to a cutoff of  13.68, 13.68, 13.68 a.u.


 I would recommend the setting:
   dimension x,y,z NGX =    15 NGY =   15 NGZ =   15
 SYSTEM =  diamond Si                              
 POSCAR =  diamond Si:                             

 Startparameter for this run:
   NWRITE =      2    write-flag & timer
   PREC   = normal    normal or accurate (medium, high low for compatibility)
   ISTART =      0    job   : 0-new  1-cont  2-samecut
   ICHARG =      2    charge: 1-file 2-atom 10-const
   ISPIN  =      1    spin polarized calculation?
   LNONCOLLINEAR =      F non collinear calculations
   LSORBIT =      F    spin-orbit coupling
   INIWAV =      1    electr: 0-lowe 1-rand  2-diag
   LASPH  =      F    aspherical Exc in radial PAW
   METAGGA=      F    non-selfconsistent MetaGGA calc.

 Electronic Relaxation 1
   ENCUT  =  240.0 eV  17.64 Ry    4.20 a.u.   4.91  4.91  4.91*2*pi/ulx,y,z
   ENINI  =  240.0     initial cutoff
   ENAUG  =  322.1 eV  augmentation charge cutoff
   NELM   =     60;   NELMIN=  2; NELMDL= -5     # of ELM steps 
   EDIFF  = 0.1E-03   stopping-criterion for ELM
   LREAL  =      F    real-space projection
   NLSPLINE    = F    spline interpolate recip. space projectors
   LCOMPAT=      F    compatible to vasp.4.4
   GGA_COMPAT  = T    GGA compatible to vasp.4.4-vasp.4.6
   LMAXPAW     = -100 max onsite density
   LMAXMIX     =    2 max onsite mixed and CHGCAR
   VOSKOWN=      0    Vosko Wilk Nusair interpolation
   ROPT   =    0.00000
 Ionic relaxation
   EDIFFG = 0.1E-02   stopping-criterion for IOM
   NSW    =      5    number of steps for IOM
   NBLOCK =      1;   KBLOCK =      5    inner block; outer block 
   IBRION =      2    ionic relax: 0-MD 1-quasi-New 2-CG
   NFREE  =      1    steps in history (QN), initial steepest desc. (CG)
   ISIF   =      3    stress and relaxation
   IWAVPR =     11    prediction:  0-non 1-charg 2-wave 3-comb
   ISYM   =      2    0-nonsym 1-usesym 2-fastsym
   LCORR  =      T    Harris-Foulkes like correction to forces

   POTIM  = 0.5000    time-step for ionic-motion
   TEIN   =    0.0    initial temperature
   TEBEG  =    0.0;   TEEND  =   0.0 temperature during run
   SMASS  =  -3.00    Nose mass-parameter (am)
   estimated Nose-frequenzy (Omega)   =  0.10E-29 period in steps =****** mass=  -0.346E-27a.u.
   SCALEE = 1.0000    scale energy and forces
   NPACO  =    256;   APACO  = 16.0  distance and # of slots for P.C.
   PSTRESS=    0.0 pullay stress

  Mass of Ions in am
   POMASS =  28.09
  Ionic Valenz
   ZVAL   =   4.00
  Atomic Wigner-Seitz radii
   RWIGS  =  -1.00
  virtual crystal weights 
   VCA    =   1.00
   NELECT =       8.0000    total number of electrons
   NUPDOWN=      -1.0000    fix difference up-down

 DOS related values:
   EMIN   =  10.00;   EMAX   =-10.00  energy-range for DOS
   EFERMI =   0.00
   ISMEAR =     0;   SIGMA  =   0.10  broadening in eV -4-tet -1-fermi 0-gaus

 Electronic relaxation 2 (details)
   IALGO  =     38    algorithm
   LDIAG  =      T    sub-space diagonalisation (order eigenvalues)
   LSUBROT=      F    optimize rotation matrix (better conditioning)
   TURBO    =      0    0=normal 1=particle mesh
   IRESTART =      0    0=no restart 2=restart with 2 vectors
   NREBOOT  =      0    no. of reboots
   NMIN     =      0    reboot dimension
   EREF     =   0.00    reference energy to select bands
   IMIX   =      4    mixing-type and parameters
     AMIX     =   0.40;   BMIX     =  1.00
     AMIX_MAG =   1.60;   BMIX_MAG =  1.00
     AMIN     =   0.10
     WC   =   100.;   INIMIX=   1;  MIXPRE=   1;  MAXMIX= -45

 Intra band minimization:
   WEIMIN = 0.0010     energy-eigenvalue tresh-hold
   EBREAK =  0.31E-05  absolut break condition
   DEPER  =   0.30     relativ break condition  

   TIME   =   0.40     timestep for ELM

  volume/ion in A,a.u.               =      20.80       140.34
  Fermi-wavevector in a.u.,A,eV,Ry     =   0.944993  1.785779 12.150174  0.893013
  Thomas-Fermi vector in A             =   2.072852
 
 Write flags
   LWAVE  =      T    write WAVECAR
   LCHARG =      T    write CHGCAR
   LVTOT  =      F    write LOCPOT, total local potential
   LVHAR  =      F    write LOCPOT, Hartree potential only
   LELF   =      F    write electronic localiz. function (ELF)
   LORBIT =      0    0 simple, 1 ext, 2 COOP (PROOUT)


 Dipole corrections
   LMONO  =      F    monopole corrections only (constant potential shift)
   LDIPOL =      F    correct potential (dipole corrections)
   IDIPOL =      0    1-x, 2-y, 3-z, 4-all directions 
   EPSILON=  1.0000000 bulk dielectric constant

 Exchange correlation treatment:
   GGA     =    --    GGA type
   LEXCH   =     2    internal setting for exchange type
   VOSKOWN=      0    Vosko Wilk Nusair interpolation
   LHFCALC =     F    Hartree Fock is set to
   LHFONE  =     F    Hartree Fock one center treatment
   AEXX    =    0.0000 exact exchange contribution

 Linear response parameters
   LEPSILON=     F    determine dielectric tensor
   LRPA    =     F    only Hartree local field effects (RPA)
   LNABLA  =     F    use nabla operator in PAW spheres
   LVEL    =     F    velocity operator in full k-point grid
   LINTERFAST=   F  fast interpolation
   KINTER  =     0    interpolate to denser k-point grid
   CSHIFT  =0.1000    complex shift for real part using Kramers Kronig
   OMEGAMAX=  -1.0    maximum frequency
   DEG_THRESHOLD= 0.2000000E-02 threshold for treating states as degnerate
   RTIME   =    0.100 relaxation time in fs

 Orbital magnetization related:
   ORBITALMAG=     F  switch on orbital magnetization
   LCHIMAG   =     F  perturbation theory with respect to B field
   DQ        =  0.001000  dq finite difference perturbation B field



--------------------------------------------------------------------------------------------------------


 conjugate gradient relaxation of ions
 charge density and potential will be updated during run
 non-spin polarized calculation
 Variant of blocked Davidson
 Davidson routine will perform the subspace rotation
 perform sub-space diagonalisation
    after iterative eigenvector-optimisation
 modified Broyden-mixing scheme, WC =      100.0
 initial mixing is a Kerker type mixing with AMIX =  0.4000 and BMIX =      1.0000
 Hartree-type preconditioning will be used
 using additional bands            4
 reciprocal scheme for non local part
 use partial core corrections
 calculate Harris-corrections to forces 
   (improved forces if not selfconsistent)
 use of overlap-Matrix (Vanderbilt PP)
 Gauss-broadening in eV      SIGMA  =   0.10


--------------------------------------------------------------------------------------------------------


  energy-cutoff  :      240.00
  volume of cell :       41.59
      direct lattice vectors                 reciprocal lattice vectors
     0.000000000  2.750000000  2.750000000    -0.181818182  0.181818182  0.181818182
     2.750000000  0.000000000  2.750000000     0.181818182 -0.181818182  0.181818182
     2.750000000  2.750000000  0.000000000     0.181818182  0.181818182 -0.181818182

  length of vectors
     3.889087297  3.889087297  3.889087297     0.314918329  0.314918329  0.314918329


 
 k-points in units of 2pi/SCALE and weight: k-points                                
   0.00000000  0.00000000  0.00000000       0.001
  -0.09090909  0.09090909  0.09090909       0.006
  -0.18181818  0.18181818  0.18181818       0.006
  -0.27272727  0.27272727  0.27272727       0.006
  -0.36363636  0.36363636  0.36363636       0.006
  -0.45454545  0.45454545  0.45454545       0.006
   0.00000000  0.00000000  0.18181818       0.005
  -0.09090909  0.09090909  0.27272727       0.018
  -0.18181818  0.18181818  0.36363636       0.018
  -0.27272727  0.27272727  0.45454545       0.018
  -0.36363636  0.36363636  0.54545455       0.018
   0.54545455 -0.54545455 -0.36363636       0.018
   0.45454545 -0.45454545 -0.27272727       0.018
   0.36363636 -0.36363636 -0.18181818       0.018
   0.27272727 -0.27272727 -0.09090909       0.018
   0.18181818 -0.18181818  0.00000000       0.009
   0.00000000  0.00000000  0.36363636       0.005
  -0.09090909  0.09090909  0.45454545       0.018
  -0.18181818  0.18181818  0.54545455       0.018
  -0.27272727  0.27272727  0.63636364       0.018
   0.63636364 -0.63636364 -0.27272727       0.018
   0.54545455 -0.54545455 -0.18181818       0.018
   0.45454545 -0.45454545 -0.09090909       0.018
   0.36363636 -0.36363636  0.00000000       0.009
   0.00000000  0.00000000  0.54545455       0.005
  -0.09090909  0.09090909  0.63636364       0.018
  -0.18181818  0.18181818  0.72727273       0.018
   0.72727273 -0.72727273 -0.18181818       0.018
   0.63636364 -0.63636364 -0.09090909       0.018
   0.54545455 -0.54545455  0.00000000       0.009
   0.00000000  0.00000000  0.72727273       0.005
  -0.09090909  0.09090909  0.81818182       0.018
   0.81818182 -0.81818182 -0.09090909       0.018
   0.72727273 -0.72727273  0.00000000       0.009
   0.00000000  0.00000000  0.90909091       0.005
   0.90909091 -0.90909091 -0.00000000       0.009
  -0.00000000  0.18181818  0.36363636       0.018
  -0.09090909  0.27272727  0.45454545       0.036
  -0.18181818  0.36363636  0.54545455       0.036
   0.72727273 -0.54545455 -0.36363636       0.036
   0.00000000  0.18181818  0.54545455       0.018
  -0.09090909  0.27272727  0.63636364       0.036
   0.81818182 -0.63636364 -0.27272727       0.036
   0.72727273 -0.54545455 -0.18181818       0.036
   0.63636364 -0.45454545 -0.09090909       0.036
   0.54545455 -0.36363636  0.00000000       0.018
  -0.00000000  0.18181818  0.72727273       0.018
   0.90909091 -0.72727273 -0.18181818       0.036
   0.81818182 -0.63636364 -0.09090909       0.036
   0.72727273 -0.54545455  0.00000000       0.018
   1.00000000 -0.81818182 -0.09090909       0.018
   0.90909091 -0.72727273 -0.00000000       0.018
   1.00000000 -0.63636364 -0.27272727       0.018
   0.90909091 -0.54545455 -0.18181818       0.036
   1.00000000 -0.63636364 -0.09090909       0.018
   0.90909091 -0.54545455 -0.00000000       0.018
 
 k-points in reciprocal lattice and weights: k-points                                
   0.00000000  0.00000000  0.00000000       0.001
   0.09090909  0.00000000  0.00000000       0.006
   0.18181818  0.00000000  0.00000000       0.006
   0.27272727  0.00000000  0.00000000       0.006
   0.36363636  0.00000000  0.00000000       0.006
   0.45454545  0.00000000  0.00000000       0.006
   0.09090909  0.09090909  0.00000000       0.005
   0.18181818  0.09090909  0.00000000       0.018
   0.27272727  0.09090909  0.00000000       0.018
   0.36363636  0.09090909  0.00000000       0.018
   0.45454545  0.09090909  0.00000000       0.018
  -0.45454545  0.09090909  0.00000000       0.018
  -0.36363636  0.09090909  0.00000000       0.018
  -0.27272727  0.09090909  0.00000000       0.018
  -0.18181818  0.09090909  0.00000000       0.018
  -0.09090909  0.09090909  0.00000000       0.009
   0.18181818  0.18181818  0.00000000       0.005
   0.27272727  0.18181818  0.00000000       0.018
   0.36363636  0.18181818  0.00000000       0.018
   0.45454545  0.18181818  0.00000000       0.018
  -0.45454545  0.18181818  0.00000000       0.018
  -0.36363636  0.18181818  0.00000000       0.018
  -0.27272727  0.18181818  0.00000000       0.018
  -0.18181818  0.18181818  0.00000000       0.009
   0.27272727  0.27272727  0.00000000       0.005
   0.36363636  0.27272727  0.00000000       0.018
   0.45454545  0.27272727  0.00000000       0.018
  -0.45454545  0.27272727  0.00000000       0.018
  -0.36363636  0.27272727  0.00000000       0.018
  -0.27272727  0.27272727  0.00000000       0.009
   0.36363636  0.36363636  0.00000000       0.005
   0.45454545  0.36363636  0.00000000       0.018
  -0.45454545  0.36363636  0.00000000       0.018
  -0.36363636  0.36363636  0.00000000       0.009
   0.45454545  0.45454545  0.00000000       0.005
  -0.45454545  0.45454545  0.00000000       0.009
   0.27272727  0.18181818  0.09090909       0.018
   0.36363636  0.18181818  0.09090909       0.036
   0.45454545  0.18181818  0.09090909       0.036
  -0.45454545  0.18181818  0.09090909       0.036
   0.36363636  0.27272727  0.09090909       0.018
   0.45454545  0.27272727  0.09090909       0.036
  -0.45454545  0.27272727  0.09090909       0.036
  -0.36363636  0.27272727  0.09090909       0.036
  -0.27272727  0.27272727  0.09090909       0.036
  -0.18181818  0.27272727  0.09090909       0.018
   0.45454545  0.36363636  0.09090909       0.018
  -0.45454545  0.36363636  0.09090909       0.036
  -0.36363636  0.36363636  0.09090909       0.036
  -0.27272727  0.36363636  0.09090909       0.018
  -0.45454545  0.45454545  0.09090909       0.018
  -0.36363636  0.45454545  0.09090909       0.018
  -0.45454545  0.36363636  0.18181818       0.018
  -0.36363636  0.36363636  0.18181818       0.036
  -0.36363636  0.45454545  0.18181818       0.018
  -0.27272727  0.45454545  0.18181818       0.018
 
 position of ions in fractional coordinates (direct lattice) 
   0.87500000  0.87500000  0.87500000
   0.12500000  0.12500000  0.12500000
 
 position of ions in cartesian coordinates  (Angst):
   4.81250000  4.81250000  4.81250000
   0.68750000  0.68750000  0.68750000
 


--------------------------------------------------------------------------------------------------------


 k-point  1 :   0.0000 0.0000 0.0000  plane waves:     339
 k-point  2 :   0.0909 0.0000 0.0000  plane waves:     335
 k-point  3 :   0.1818 0.0000 0.0000  plane waves:     344
 k-point  4 :   0.2727 0.0000 0.0000  plane waves:     350
 k-point  5 :   0.3636 0.0000 0.0000  plane waves:     353
 k-point  6 :   0.4545 0.0000 0.0000  plane waves:     356
 k-point  7 :   0.0909 0.0909 0.0000  plane waves:     335
 k-point  8 :   0.1818 0.0909 0.0000  plane waves:     345
 k-point  9 :   0.2727 0.0909 0.0000  plane waves:     343
 k-point 10 :   0.3636 0.0909 0.0000  plane waves:     349
 k-point 11 :   0.4545 0.0909 0.0000  plane waves:     347
 k-point 12 :  -0.4545 0.0909 0.0000  plane waves:     353
 k-point 13 :  -0.3636 0.0909 0.0000  plane waves:     352
 k-point 14 :  -0.2727 0.0909 0.0000  plane waves:     348
 k-point 15 :  -0.1818 0.0909 0.0000  plane waves:     351
 k-point 16 :  -0.0909 0.0909 0.0000  plane waves:     343
 k-point 17 :   0.1818 0.1818 0.0000  plane waves:     347
 k-point 18 :   0.2727 0.1818 0.0000  plane waves:     348
 k-point 19 :   0.3636 0.1818 0.0000  plane waves:     349
 k-point 20 :   0.4545 0.1818 0.0000  plane waves:     348
 k-point 21 :  -0.4545 0.1818 0.0000  plane waves:     360
 k-point 22 :  -0.3636 0.1818 0.0000  plane waves:     354
 k-point 23 :  -0.2727 0.1818 0.0000  plane waves:     351
 k-point 24 :  -0.1818 0.1818 0.0000  plane waves:     349
 k-point 25 :   0.2727 0.2727 0.0000  plane waves:     347
 k-point 26 :   0.3636 0.2727 0.0000  plane waves:     341
 k-point 27 :   0.4545 0.2727 0.0000  plane waves:     346
 k-point 28 :  -0.4545 0.2727 0.0000  plane waves:     359
 k-point 29 :  -0.3636 0.2727 0.0000  plane waves:     358
 k-point 30 :  -0.2727 0.2727 0.0000  plane waves:     351
 k-point 31 :   0.3636 0.3636 0.0000  plane waves:     351
 k-point 32 :   0.4545 0.3636 0.0000  plane waves:     348
 k-point 33 :  -0.4545 0.3636 0.0000  plane waves:     358
 k-point 34 :  -0.3636 0.3636 0.0000  plane waves:     351
 k-point 35 :   0.4545 0.4545 0.0000  plane waves:     343
 k-point 36 :  -0.4545 0.4545 0.0000  plane waves:     347
 k-point 37 :   0.2727 0.1818 0.0909  plane waves:     349
 k-point 38 :   0.3636 0.1818 0.0909  plane waves:     343
 k-point 39 :   0.4545 0.1818 0.0909  plane waves:     348
 k-point 40 :  -0.4545 0.1818 0.0909  plane waves:     354
 k-point 41 :   0.3636 0.2727 0.0909  plane waves:     346
 k-point 42 :   0.4545 0.2727 0.0909  plane waves:     345
 k-point 43 :  -0.4545 0.2727 0.0909  plane waves:     355
 k-point 44 :  -0.3636 0.2727 0.0909  plane waves:     359
 k-point 45 :  -0.2727 0.2727 0.0909  plane waves:     355
 k-point 46 :  -0.1818 0.2727 0.0909  plane waves:     350
 k-point 47 :   0.4545 0.3636 0.0909  plane waves:     342
 k-point 48 :  -0.4545 0.3636 0.0909  plane waves:     349
 k-point 49 :  -0.3636 0.3636 0.0909  plane waves:     356
 k-point 50 :  -0.2727 0.3636 0.0909  plane waves:     355
 k-point 51 :  -0.4545 0.4545 0.0909  plane waves:     357
 k-point 52 :  -0.3636 0.4545 0.0909  plane waves:     357
 k-point 53 :  -0.4545 0.3636 0.1818  plane waves:     349
 k-point 54 :  -0.3636 0.3636 0.1818  plane waves:     359
 k-point 55 :  -0.3636 0.4545 0.1818  plane waves:     355
 k-point 56 :  -0.2727 0.4545 0.1818  plane waves:     355

 maximum and minimum number of plane-waves per node :       360      335

 maximum number of plane-waves:       360
 maximum index in each direction: 
   IXMAX=    5   IYMAX=    4   IZMAX=    4
   IXMIN=   -5   IYMIN=   -5   IZMIN=   -5

 WARNING: aliasing errors must be expected set NGX to  22 to avoid them
 WARNING: aliasing errors must be expected set NGY to  20 to avoid them
 WARNING: aliasing errors must be expected set NGZ to  20 to avoid them
 aliasing errors are usually negligible using standard VASP settings
 and one can safely disregard these warnings

 serial   3D FFT for wavefunctions
 parallel 3D FFT for charge:
    minimum data exchange during FFTs selected (reduces bandwidth)


 total amount of memory used by VASP on root node    36992. kBytes
========================================================================

   base      :      30000. kBytes
   nonl-proj :       1301. kBytes
   fftplans  :       1184. kBytes
   grid      :       1806. kBytes
   one-center:          6. kBytes
   wavefun   :       2695. kBytes
 
     INWAV:  cpu time    0.00: real time    0.00
 Broyden mixing: mesh for mixing (old mesh)
   NGX =  9   NGY =  9   NGZ =  9
  (NGX  = 32   NGY  = 32   NGZ  = 32)
  gives a total of    729 points

 initial charge density was supplied:
 charge density of overlapping atoms calculated
 number of electron       8.0000000 magnetization 
 keeping initial charge density in first step


--------------------------------------------------------------------------------------------------------


 Maximum index for augmentation-charges         3151 (set IRDMAX)


--------------------------------------------------------------------------------------------------------


 First call to EWALD:  gamma=   0.512
 Maximum number of real-space cells 3x 3x 3
 Maximum number of reciprocal cells 3x 3x 3

 FEWALD executed in parallel
    FEWALD:  cpu time    0.00: real time    0.00


----------------------------------------- Iteration    1(   1)  ---------------------------------------


    POTLOK:  cpu time    0.01: real time    0.01
    SETDIJ:  cpu time    0.00: real time    0.00
     EDDAV:  cpu time    0.25: real time    0.25
       DOS:  cpu time    0.00: real time    0.00
    --------------------------------------------
      LOOP:  cpu time    0.26: real time    0.26

 eigenvalue-minimisations  :   912
 total energy-change (2. order) :-0.2885695E+01  (-0.2004864E+03)
 number of electron       8.0000000 magnetization 
 augmentation part        8.0000000 magnetization 

 Free energy of the ion-electron system (eV)
  ---------------------------------------------------
  alpha Z        PSCENC =         2.27971458
  Ewald energy   TEWEN  =      -225.65453461
  -Hartree energ DENC   =       -11.66659557
  -exchange      EXHF   =         0.00000000
  -V(xc)+E(xc)   XCENC  =       -18.74256651
  PAW double counting   =        67.11795164      -32.28261218
  entropy T*S    EENTRO =        -0.00061132
  eigenvalues    EBANDS =         9.20831768
  atomic energy  EATOM  =       206.85524113
  ---------------------------------------------------
  free energy    TOTEN  =        -2.88569514 eV

  energy without entropy =       -2.88508382  energy(sigma->0) =       -2.88538948


--------------------------------------------------------------------------------------------------------




----------------------------------------- Iteration    1(   2)  ---------------------------------------


     EDDAV:  cpu time    0.37: real time    0.37
       DOS:  cpu time    0.00: real time    0.00
    --------------------------------------------
      LOOP:  cpu time    0.38: real time    0.38

 eigenvalue-minimisations  :  1440
 total energy-change (2. order) :-0.9116161E+01  (-0.8875696E+01)
 number of electron       8.0000000 magnetization 
 augmentation part        8.0000000 magnetization 

 Free energy of the ion-electron system (eV)
  ---------------------------------------------------
  alpha Z        PSCENC =         2.27971458
  Ewald energy   TEWEN  =      -225.65453461
  -Hartree energ DENC   =       -11.66659557
  -exchange      EXHF   =         0.00000000
  -V(xc)+E(xc)   XCENC  =       -18.74256651
  PAW double counting   =        67.11795164      -32.28261218
  entropy T*S    EENTRO =        -0.00000000
  eigenvalues    EBANDS =         0.09154507
  atomic energy  EATOM  =       206.85524113
  ---------------------------------------------------
  free energy    TOTEN  =       -12.00185643 eV

  energy without entropy =      -12.00185643  energy(sigma->0) =      -12.00185643


--------------------------------------------------------------------------------------------------------




----------------------------------------- Iteration    1(   3)  ---------------------------------------


     EDDAV:  cpu time    0.32: real time    0.32
       DOS:  cpu time    0.00: real time    0.00
    --------------------------------------------
      LOOP:  cpu time    0.32: real time    0.33

 eigenvalue-minimisations  :  1224
 total energy-change (2. order) :-0.9460654E-01  (-0.9460654E-01)
 number of electron       8.0000000 magnetization 
 augmentation part        8.0000000 magnetization 

 Free energy of the ion-electron system (eV)
  ---------------------------------------------------
  alpha Z        PSCENC =         2.27971458
  Ewald energy   TEWEN  =      -225.65453461
  -Hartree energ DENC   =       -11.66659557
  -exchange      EXHF   =         0.00000000
  -V(xc)+E(xc)   XCENC  =       -18.74256651
  PAW double counting   =        67.11795164      -32.28261218
  entropy T*S    EENTRO =        -0.00000000
  eigenvalues    EBANDS =        -0.00306146
  atomic energy  EATOM  =       206.85524113
  ---------------------------------------------------
  free energy    TOTEN  =       -12.09646297 eV

  energy without entropy =      -12.09646297  energy(sigma->0) =      -12.09646297


--------------------------------------------------------------------------------------------------------




----------------------------------------- Iteration    1(   4)  ---------------------------------------


     EDDAV:  cpu time    0.35: real time    0.35
       DOS:  cpu time    0.00: real time    0.00
    --------------------------------------------
      LOOP:  cpu time    0.35: real time    0.36

 eigenvalue-minimisations  :  1360
 total energy-change (2. order) :-0.2235600E-03  (-0.2235599E-03)
 number of electron       8.0000000 magnetization 
 augmentation part        8.0000000 magnetization 

 Free energy of the ion-electron system (eV)
  ---------------------------------------------------
  alpha Z        PSCENC =         2.27971458
  Ewald energy   TEWEN  =      -225.65453461
  -Hartree energ DENC   =       -11.66659557
  -exchange      EXHF   =         0.00000000
  -V(xc)+E(xc)   XCENC  =       -18.74256651
  PAW double counting   =        67.11795164      -32.28261218
  entropy T*S    EENTRO =        -0.00000000
  eigenvalues    EBANDS =        -0.00328502
  atomic energy  EATOM  =       206.85524113
  ---------------------------------------------------
  free energy    TOTEN  =       -12.09668653 eV

  energy without entropy =      -12.09668653  energy(sigma->0) =      -12.09668653


--------------------------------------------------------------------------------------------------------




----------------------------------------- Iteration    1(   5)  ---------------------------------------


     EDDAV:  cpu time    0.33: real time    0.33
       DOS:  cpu time    0.00: real time    0.00
    CHARGE:  cpu time    0.02: real time    0.02
    MIXING:  cpu time    0.00: real time    0.00
    --------------------------------------------
      LOOP:  cpu time    0.35: real time    0.35

 eigenvalue-minimisations  :  1264
 total energy-change (2. order) :-0.1377106E-06  (-0.1377842E-06)
 number of electron       8.0000001 magnetization 
 augmentation part       -0.4938886 magnetization 

 Broyden mixing:
  rms(total) = 0.29351E+00    rms(broyden)= 0.29346E+00
  rms(prec ) = 0.84591E+00
  weight for this iteration     100.00

 Free energy of the ion-electron system (eV)
  ---------------------------------------------------
  alpha Z        PSCENC =         2.27971458
  Ewald energy   TEWEN  =      -225.65453461
  -Hartree energ DENC   =       -11.66659557
  -exchange      EXHF   =         0.00000000
  -V(xc)+E(xc)   XCENC  =       -18.74256651
  PAW double counting   =        67.11795164      -32.28261218
  entropy T*S    EENTRO =        -0.00000000
  eigenvalues    EBANDS =        -0.00328516
  atomic energy  EATOM  =       206.85524113
  ---------------------------------------------------
  free energy    TOTEN  =       -12.09668667 eV

  energy without entropy =      -12.09668667  energy(sigma->0) =      -12.09668667


--------------------------------------------------------------------------------------------------------




----------------------------------------- Iteration    1(   6)  ---------------------------------------


    POTLOK:  cpu time    0.00: real time    0.01
    SETDIJ:  cpu time    0.00: real time    0.00
     EDDAV:  cpu time    0.28: real time    0.28
       DOS:  cpu time    0.00: real time    0.00
    CHARGE:  cpu time    0.02: real time    0.02
    MIXING:  cpu time    0.00: real time    0.00
    --------------------------------------------
      LOOP:  cpu time    0.31: real time    0.32

 eigenvalue-minimisations  :  1072
 total energy-change (2. order) : 0.1601976E+00  (-0.1033866E-01)
 number of electron       8.0000001 magnetization 
 augmentation part       -0.4885256 magnetization 

 Broyden mixing:
  rms(total) = 0.17063E+00    rms(broyden)= 0.17063E+00
  rms(prec ) = 0.48752E+00
  weight for this iteration     100.00

 eigenvalues of (default mixing * dielectric matrix)
  average eigenvalue GAMMA=   2.3684
  2.3684

 Free energy of the ion-electron system (eV)
  ---------------------------------------------------
  alpha Z        PSCENC =         2.27971458
  Ewald energy   TEWEN  =      -225.65453461
  -Hartree energ DENC   =       -13.12633891
  -exchange      EXHF   =         0.00000000
  -V(xc)+E(xc)   XCENC  =       -18.51591271
  PAW double counting   =        70.82836002      -36.09426956
  entropy T*S    EENTRO =        -0.00000000
  eigenvalues    EBANDS =         1.49125103
  atomic energy  EATOM  =       206.85524113
  ---------------------------------------------------
  free energy    TOTEN  =       -11.93648903 eV

  energy without entropy =      -11.93648903  energy(sigma->0) =      -11.93648903


--------------------------------------------------------------------------------------------------------




----------------------------------------- Iteration    1(   7)  ---------------------------------------


    POTLOK:  cpu time    0.00: real time    0.01
    SETDIJ:  cpu time    0.00: real time    0.00
     EDDAV:  cpu time    0.28: real time    0.28
       DOS:  cpu time    0.00: real time    0.00
    CHARGE:  cpu time    0.02: real time    0.02
    MIXING:  cpu time    0.00: real time    0.00
    --------------------------------------------
      LOOP:  cpu time    0.31: real time    0.31

 eigenvalue-minimisations  :  1064
 total energy-change (2. order) : 0.7536584E-01  (-0.1829422E-01)
 number of electron       8.0000001 magnetization 
 augmentation part       -0.4822710 magnetization 

 Broyden mixing:
  rms(total) = 0.15178E-01    rms(broyden)= 0.15176E-01
  rms(prec ) = 0.40887E-01
  weight for this iteration     100.00

 eigenvalues of (default mixing * dielectric matrix)
  average eigenvalue GAMMA=   2.4456
  2.4456  2.4456

 Free energy of the ion-electron system (eV)
  ---------------------------------------------------
  alpha Z        PSCENC =         2.27971458
  Ewald energy   TEWEN  =      -225.65453461
  -Hartree energ DENC   =       -15.32605700
  -exchange      EXHF   =         0.00000000
  -V(xc)+E(xc)   XCENC  =       -18.13816630
  PAW double counting   =        75.56472445      -40.95419479
  entropy T*S    EENTRO =        -0.00000021
  eigenvalues    EBANDS =         3.51214955
  atomic energy  EATOM  =       206.85524113
  ---------------------------------------------------
  free energy    TOTEN  =       -11.86112319 eV

  energy without entropy =      -11.86112299  energy(sigma->0) =      -11.86112309


--------------------------------------------------------------------------------------------------------




----------------------------------------- Iteration    1(   8)  ---------------------------------------


    POTLOK:  cpu time    0.00: real time    0.01
    SETDIJ:  cpu time    0.00: real time    0.00
     EDDAV:  cpu time    0.26: real time    0.26
       DOS:  cpu time    0.00: real time    0.00
    CHARGE:  cpu time    0.02: real time    0.02
    MIXING:  cpu time    0.00: real time    0.00
    --------------------------------------------
      LOOP:  cpu time    0.29: real time    0.30

 eigenvalue-minimisations  :   984
 total energy-change (2. order) :-0.1416383E-03  (-0.4818670E-03)
 number of electron       8.0000001 magnetization 
 augmentation part       -0.4837359 magnetization 

 Broyden mixing:
  rms(total) = 0.27269E-02    rms(broyden)= 0.27234E-02
  rms(prec ) = 0.99389E-02
  weight for this iteration     100.00

 eigenvalues of (default mixing * dielectric matrix)
  average eigenvalue GAMMA=   2.0243
  1.3955  2.6564  2.0208

 Free energy of the ion-electron system (eV)
  ---------------------------------------------------
  alpha Z        PSCENC =         2.27971458
  Ewald energy   TEWEN  =      -225.65453461
  -Hartree energ DENC   =       -15.22648834
  -exchange      EXHF   =         0.00000000
  -V(xc)+E(xc)   XCENC  =       -18.12623427
  PAW double counting   =        74.70210785      -40.06687177
  entropy T*S    EENTRO =        -0.00000011
  eigenvalues    EBANDS =         3.37580070
  atomic energy  EATOM  =       206.85524113
  ---------------------------------------------------
  free energy    TOTEN  =       -11.86126483 eV

  energy without entropy =      -11.86126472  energy(sigma->0) =      -11.86126478


--------------------------------------------------------------------------------------------------------




----------------------------------------- Iteration    1(   9)  ---------------------------------------


    POTLOK:  cpu time    0.01: real time    0.01
    SETDIJ:  cpu time    0.00: real time    0.00
     EDDAV:  cpu time    0.30: real time    0.30
       DOS:  cpu time    0.00: real time    0.00
    --------------------------------------------
      LOOP:  cpu time    0.31: real time    0.31

 eigenvalue-minimisations  :  1112
 total energy-change (2. order) : 0.3092883E-04  (-0.1464264E-04)
 number of electron       8.0000001 magnetization 
 augmentation part       -0.4837359 magnetization 

 Free energy of the ion-electron system (eV)
  ---------------------------------------------------
  alpha Z        PSCENC =         2.27971458
  Ewald energy   TEWEN  =      -225.65453461
  -Hartree energ DENC   =       -15.27990907
  -exchange      EXHF   =         0.00000000
  -V(xc)+E(xc)   XCENC  =       -18.11802489
  PAW double counting   =        74.82666928      -40.19500546
  entropy T*S    EENTRO =        -0.00000013
  eigenvalues    EBANDS =         3.42461527
  atomic energy  EATOM  =       206.85524113
  ---------------------------------------------------
  free energy    TOTEN  =       -11.86123390 eV

  energy without entropy =      -11.86123377  energy(sigma->0) =      -11.86123384


--------------------------------------------------------------------------------------------------------




 average (electrostatic) potential at core
  the test charge radii are     0.9892
  (the norm of the test charge is              1.0000)
       1 -85.3231       2 -85.3231
 
 
 
 E-fermi :   5.6775     XC(G=0):  -9.4649     alpha+bet :-11.6368


 k-point     1 :       0.0000    0.0000    0.0000
  band No.  band energies     occupation 
      1      -6.3143      2.00000
      2       5.4018      1.99990
      3       5.4018      1.99990
      4       5.4018      1.99990
      5       7.9108      0.00000
      6       7.9108      0.00000
      7       7.9108      0.00000
      8       8.1678      0.00000

 k-point     2 :       0.0909    0.0000    0.0000
  band No.  band energies     occupation 
      1      -6.2094      2.00000
      2       4.3992      2.00000
      3       5.2401      2.00000
      4       5.2401      2.00000
      5       7.8204      0.00000
      6       8.1499      0.00000
      7       8.1500      0.00000
      8       9.0752      0.00000

 k-point     3 :       0.1818    0.0000    0.0000
  band No.  band energies     occupation 
      1      -5.8992      2.00000
      2       2.7439      2.00000
      3       4.9066      2.00000
      4       4.9066      2.00000
      5       7.4668      0.00000
      6       8.6124      0.00000
      7       8.6124      0.00000
      8      10.6710      0.00000

 k-point     4 :       0.2727    0.0000    0.0000
  band No.  band energies     occupation 
      1      -5.3999      2.00000
      2       1.1240      2.00000
      3       4.5897      2.00000
      4       4.5897      2.00000
      5       7.1123      0.00000
      6       8.8702      0.00000
      7       8.8702      0.00000
      8      12.2257      0.00000

 k-point     5 :       0.3636    0.0000    0.0000
  band No.  band energies     occupation 
      1      -4.7626      2.00000
      2      -0.2919      2.00000
      3       4.3628      2.00000
      4       4.3628      2.00000
      5       6.8488      0.00000
      6       8.8316      0.00000
      7       8.8316      0.00000
      8      12.9870      0.00000

 k-point     6 :       0.4545    0.0000    0.0000
  band No.  band energies     occupation 
      1      -4.1768      2.00000
      2      -1.2731      2.00000
      3       4.2469      2.00000
      4       4.2469      2.00000
      5       6.7111      0.00000
      6       8.7356      0.00000
      7       8.7356      0.00000
      8      12.8787      0.00000

 k-point     7 :       0.0909    0.0909    0.0000
  band No.  band energies     occupation 
      1      -6.1742      2.00000
      2       4.5488      2.00000
      3       4.9247      2.00000
      4       4.9247      2.00000
      5       7.5849      0.00000
      6       8.5596      0.00000
      7       8.5596      0.00000
      8       8.9572      0.00000

 k-point     8 :       0.1818    0.0909    0.0000
  band No.  band energies     occupation 
      1      -5.9318      2.00000
      2       3.2204      2.00000
      3       4.5375      2.00000
      4       4.6969      2.00000
      5       7.6054      0.00000
      6       8.5051      0.00000
      7       9.1347      0.00000
      8      10.0665      0.00000

 k-point     9 :       0.2727    0.0909    0.0000
  band No.  band energies     occupation 
      1      -5.4930      2.00000
      2       1.6405      2.00000
      3       4.2257      2.00000
      4       4.3263      2.00000
      5       7.6690      0.00000
      6       8.5470      0.00000
      7       9.4910      0.00000
      8      10.6297      0.00000

 k-point    10 :       0.3636    0.0909    0.0000
  band No.  band energies     occupation 
      1      -4.8920      2.00000
      2       0.1744      2.00000
      3       3.9510      2.00000
      4       4.0423      2.00000
      5       7.4802      0.00000
      6       8.6358      0.00000
      7       9.4439      0.00000
      8      11.3888      0.00000

 k-point    11 :       0.4545    0.0909    0.0000
  band No.  band energies     occupation 
      1      -4.2473      2.00000
      2      -0.9809      2.00000
      3       3.6607      2.00000
      4       4.0018      2.00000
      5       7.3289      0.00000
      6       8.6166      0.00000
      7       9.2263      0.00000
      8      12.5664      0.00000

 k-point    12 :      -0.4545    0.0909    0.0000
  band No.  band energies     occupation 
      1      -3.9895      2.00000
      2      -1.3671      2.00000
      3       3.4892      2.00000
      4       4.0986      2.00000
      5       7.2925      0.00000
      6       8.6793      0.00000
      7       9.0464      0.00000
      8      13.1893      0.00000

 k-point    13 :      -0.3636    0.0909    0.0000
  band No.  band energies     occupation 
      1      -4.4526      2.00000
      2      -0.6453      2.00000
      3       3.4577      2.00000
      4       4.3192      2.00000
      5       7.3888      0.00000
      6       8.8660      0.00000
      7       8.9631      0.00000
      8      12.8865      0.00000

 k-point    14 :      -0.2727    0.0909    0.0000
  band No.  band energies     occupation 
      1      -5.1077      2.00000
      2       0.6434      2.00000
      3       3.5807      2.00000
      4       4.6347      2.00000
      5       7.6033      0.00000
      6       8.8813      0.00000
      7       9.0634      0.00000
      8      11.8498      0.00000

 k-point    15 :      -0.1818    0.0909    0.0000
  band No.  band energies     occupation 
      1      -5.6609      2.00000
      2       2.1509      2.00000
      3       3.8770      2.00000
      4       4.9901      2.00000
      5       7.9032      0.00000
      6       8.5915      0.00000
      7       8.9149      0.00000
      8      10.9390      0.00000

 k-point    16 :      -0.0909    0.0909    0.0000
  band No.  band energies     occupation 
      1      -6.0359      2.00000
      2       3.5901      2.00000
      3       4.4362      2.00000
      4       5.2598      2.00000
      5       8.1421      0.00000
      6       8.1993      0.00000
      7       8.3353      0.00000
      8      10.0030      0.00000

 k-point    17 :       0.1818    0.1818    0.0000
  band No.  band energies     occupation 
      1      -5.7572      2.00000
      2       3.0456      2.00000
      3       4.1152      2.00000
      4       4.1152      2.00000
      5       6.9338      0.00000
      6       9.3077      0.00000
      7       9.8664      0.00000
      8       9.8664      0.00000

 k-point    18 :       0.2727    0.1818    0.0000
  band No.  band energies     occupation 
      1      -5.3823      2.00000
      2       1.9247      2.00000
      3       3.6931      2.00000
      4       3.7808      2.00000
      5       6.9833      0.00000
      6       8.9574      0.00000
      7      10.1373      0.00000
      8      10.4396      0.00000

 k-point    19 :       0.3636    0.1818    0.0000
  band No.  band energies     occupation 
      1      -4.8299      2.00000
      2       0.5979      2.00000
      3       3.1628      2.00000
      4       3.5887      2.00000
      5       7.2118      0.00000
      6       9.3167      0.00000
      7       9.9269      0.00000
      8      10.5400      0.00000

 k-point    20 :       0.4545    0.1818    0.0000
  band No.  band energies     occupation 
      1      -4.1737      2.00000
      2      -0.5985      2.00000
      3       2.6946      2.00000
      4       3.5561      2.00000
      5       7.2457      0.00000
      6       9.6646      0.00000
      7      10.3081      0.00000
      8      10.5360      0.00000

 k-point    21 :      -0.4545    0.1818    0.0000
  band No.  band energies     occupation 
      1      -3.7114      2.00000
      2      -1.2816      2.00000
      3       2.3679      2.00000
      4       3.6821      2.00000
      5       7.3337      0.00000
      6       9.5427      0.00000
      7      10.0257      0.00000
      8      12.1143      0.00000

 k-point    22 :      -0.3636    0.1818    0.0000
  band No.  band energies     occupation 
      1      -3.9845      2.00000
      2      -0.8859      2.00000
      3       2.2226      2.00000
      4       3.9519      2.00000
      5       7.5690      0.00000
      6       9.5431      0.00000
      7       9.7989      0.00000
      8      12.8528      0.00000

 k-point    23 :      -0.2727    0.1818    0.0000
  band No.  band energies     occupation 
      1      -4.6316      2.00000
      2       0.1925      2.00000
      3       2.3097      2.00000
      4       4.3278      2.00000
      5       7.9144      0.00000
      6       9.5430      0.00000
      7       9.6087      0.00000
      8      11.4791      0.00000

 k-point    24 :      -0.1818    0.1818    0.0000
  band No.  band energies     occupation 
      1      -5.2275      2.00000
      2       1.3482      2.00000
      3       2.7897      2.00000
      4       4.7299      2.00000
      5       8.2130      0.00000
      6       9.0576      0.00000
      7       9.3090      0.00000
      8      10.8215      0.00000

 k-point    25 :       0.2727    0.2727    0.0000
  band No.  band energies     occupation 
      1      -5.0711      2.00000
      2       1.4591      2.00000
      3       3.4134      2.00000
      4       3.4134      2.00000
      5       6.3489      0.00000
      6       8.1241      0.00000
      7      11.3833      0.00000
      8      11.3833      0.00000

 k-point    26 :       0.3636    0.2727    0.0000
  band No.  band energies     occupation 
      1      -4.5738      2.00000
      2       0.5339      2.00000
      3       2.8847      2.00000
      4       3.1878      2.00000
      5       6.4825      0.00000
      6       7.8452      0.00000
      7      11.6308      0.00000
      8      11.8514      0.00000

 k-point    27 :       0.4545    0.2727    0.0000
  band No.  band energies     occupation 
      1      -3.9364      2.00000
      2      -0.4608      2.00000
      3       2.1710      2.00000
      4       3.1273      2.00000
      5       6.6817      0.00000
      6       8.5793      0.00000
      7      11.4436      0.00000
      8      11.7419      0.00000

 k-point    28 :      -0.4545    0.2727    0.0000
  band No.  band energies     occupation 
      1      -3.3463      2.00000
      2      -1.2323      2.00000
      3       1.6106      2.00000
      4       3.2355      2.00000
      5       6.8099      0.00000
      6      10.0321      0.00000
      7      11.2573      0.00000
      8      11.4271      0.00000

 k-point    29 :      -0.3636    0.2727    0.0000
  band No.  band energies     occupation 
      1      -3.4012      2.00000
      2      -1.1548      2.00000
      3       1.3350      2.00000
      4       3.5017      2.00000
      5       7.0892      0.00000
      6      11.0464      0.00000
      7      11.0698      0.00000
      8      11.8978      0.00000

 k-point    30 :      -0.2727    0.2727    0.0000
  band No.  band energies     occupation 
      1      -4.0124      2.00000
      2      -0.4205      2.00000
      3       1.4939      2.00000
      4       3.8924      2.00000
      5       7.5164      0.00000
      6      10.4696      0.00000
      7      10.7911      0.00000
      8      11.4986      0.00000

 k-point    31 :       0.3636    0.3636    0.0000
  band No.  band energies     occupation 
      1      -4.1314      2.00000
      2      -0.1118      2.00000
      3       2.9195      2.00000
      4       2.9195      2.00000
      5       6.0005      0.00000
      6       7.0168      0.00000
      7      12.9870      0.00000
      8      12.9871      0.00000

 k-point    32 :       0.4545    0.3636    0.0000
  band No.  band energies     occupation 
      1      -3.5297      2.00000
      2      -0.9018      2.00000
      3       2.3972      2.00000
      4       2.8172      2.00000
      5       6.2097      0.00000
      6       7.0264      0.00000
      7      13.2735      0.00000
      8      13.3288      0.00000

 k-point    33 :      -0.4545    0.3636    0.0000
  band No.  band energies     occupation 
      1      -2.8799      2.00000
      2      -1.5957      2.00000
      3       1.6392      2.00000
      4       2.8878      2.00000
      5       6.3765      0.00000
      6       8.1845      0.00000
      7      13.0585      0.00000
      8      13.1163      0.00000

 k-point    34 :      -0.3636    0.3636    0.0000
  band No.  band energies     occupation 
      1      -2.8219      2.00000
      2      -1.6229      2.00000
      3       1.1675      2.00000
      4       3.1251      2.00000
      5       6.6468      0.00000
      6       9.8748      0.00000
      7      12.3798      0.00000
      8      12.8868      0.00000

 k-point    35 :       0.4545    0.4545    0.0000
  band No.  band energies     occupation 
      1      -2.9641      2.00000
      2      -1.6070      2.00000
      3       2.6679      2.00000
      4       2.6679      2.00000
      5       5.9666      0.00004
      6       6.2931      0.00000
      7      14.6006      0.00000
      8      14.6006      0.00000

 k-point    36 :      -0.4545    0.4545    0.0000
  band No.  band energies     occupation 
      1      -2.3411      2.00000
      2      -2.2302      2.00000
      3       2.2360      2.00000
      4       2.6922      2.00000
      5       6.1471      0.00000
      6       6.7192      0.00000
      7      14.5109      0.00000
      8      14.6773      0.00000

 k-point    37 :       0.2727    0.1818    0.0909
  band No.  band energies     occupation 
      1      -5.6236      2.00000
      2       2.3662      2.00000
      3       3.6168      2.00000
      4       4.5924      2.00000
      5       7.6637      0.00000
      6       8.8035      0.00000
      7       9.6577      0.00000
      8      10.0703      0.00000

 k-point    38 :       0.3636    0.1818    0.0909
  band No.  band energies     occupation 
      1      -5.1271      2.00000
      2       1.0847      2.00000
      3       3.0583      2.00000
      4       4.2836      2.00000
      5       7.9510      0.00000
      6       8.7990      0.00000
      7       9.9800      0.00000
      8      10.2022      0.00000

 k-point    39 :       0.4545    0.1818    0.0909
  band No.  band energies     occupation 
      1      -4.4911      2.00000
      2      -0.2158      2.00000
      3       2.7976      2.00000
      4       3.9522      2.00000
      5       7.9483      0.00000
      6       8.6643      0.00000
      7      10.0814      0.00000
      8      11.0086      0.00000

 k-point    40 :      -0.4545    0.1818    0.0909
  band No.  band energies     occupation 
      1      -3.9006      2.00000
      2      -1.1632      2.00000
      3       2.6946      2.00000
      4       3.7504      2.00000
      5       7.9009      0.00000
      6       8.4942      0.00000
      7      10.0256      0.00000
      8      12.4206      0.00000

 k-point    41 :       0.3636    0.2727    0.0909
  band No.  band energies     occupation 
      1      -4.9474      2.00000
      2       1.0949      2.00000
      3       2.9196      2.00000
      4       3.6180      2.00000
      5       7.1079      0.00000
      6       8.6042      0.00000
      7      10.2318      0.00000
      8      11.2664      0.00000

 k-point    42 :       0.4545    0.2727    0.0909
  band No.  band energies     occupation 
      1      -4.3499      2.00000
      2       0.0488      2.00000
      3       2.3508      2.00000
      4       3.3156      2.00000
      5       7.4623      0.00000
      6       9.0185      0.00000
      7       9.9138      0.00000
      8      11.6532      0.00000

 k-point    43 :      -0.4545    0.2727    0.0909
  band No.  band energies     occupation 
      1      -3.7015      2.00000
      2      -0.9240      2.00000
      3       1.9682      2.00000
      4       3.1659      2.00000
      5       7.5906      0.00000
      6       9.5481      0.00000
      7      10.3341      0.00000
      8      11.6096      0.00000

 k-point    44 :      -0.3636    0.2727    0.0909
  band No.  band energies     occupation 
      1      -3.4464      2.00000
      2      -1.2587      2.00000
      3       1.7441      2.00000
      4       3.2522      2.00000
      5       7.7943      0.00000
      6       9.2849      0.00000
      7      11.4850      0.00000
      8      12.0026      0.00000

 k-point    45 :      -0.2727    0.2727    0.0909
  band No.  band energies     occupation 
      1      -3.9326      2.00000
      2      -0.5961      2.00000
      3       1.7395      2.00000
      4       3.5376      2.00000
      5       8.1407      0.00000
      6       9.1052      0.00000
      7      10.7749      0.00000
      8      11.4455      0.00000

 k-point    46 :      -0.1818    0.2727    0.0909
  band No.  band energies     occupation 
      1      -4.5847      2.00000
      2       0.3542      2.00000
      3       2.1129      2.00000
      4       3.9391      2.00000
      5       8.5533      0.00000
      6       8.6992      0.00000
      7       9.9298      0.00000
      8      10.9783      0.00000

 k-point    47 :       0.4545    0.3636    0.0909
  band No.  band energies     occupation 
      1      -4.0262      2.00000
      2      -0.2438      2.00000
      3       2.4577      2.00000
      4       2.8436      2.00000
      5       6.7586      0.00000
      6       7.6057      0.00000
      7      11.5742      0.00000
      8      12.9588      0.00000

 k-point    48 :      -0.4545    0.3636    0.0909
  band No.  band energies     occupation 
      1      -3.3690      2.00000
      2      -1.0412      2.00000
      3       1.8305      2.00000
      4       2.6695      2.00000
      5       7.0994      0.00000
      6       8.4003      0.00000
      7      11.2290      0.00000
      8      13.2972      0.00000

 k-point    49 :      -0.3636    0.3636    0.0909
  band No.  band energies     occupation 
      1      -2.9193      2.00000
      2      -1.5211      2.00000
      3       1.3236      2.00000
      4       2.7814      2.00000
      5       7.3079      0.00000
      6       9.9464      0.00000
      7      10.9275      0.00000
      8      12.4824      0.00000

 k-point    50 :      -0.2727    0.3636    0.0909
  band No.  band energies     occupation 
      1      -3.2922      2.00000
      2      -1.1320      2.00000
      3       1.2216      2.00000
      4       3.0949      2.00000
      5       7.6687      0.00000
      6      10.3504      0.00000
      7      11.0374      0.00000
      8      11.9265      0.00000

 k-point    51 :      -0.4545    0.4545    0.0909
  band No.  band energies     occupation 
      1      -2.8942      2.00000
      2      -1.6060      2.00000
      3       2.2724      2.00000
      4       2.3935      2.00000
      5       6.6920      0.00000
      6       6.9607      0.00000
      7      13.0637      0.00000
      8      14.3694      0.00000

 k-point    52 :      -0.3636    0.4545    0.0909
  band No.  band energies     occupation 
      1      -2.4092      2.00000
      2      -2.0374      2.00000
      3       1.6315      2.00000
      4       2.4628      2.00000
      5       6.9686      0.00000
      6       8.1952      0.00000
      7      12.6258      0.00000
      8      12.8419      0.00000

 k-point    53 :      -0.4545    0.3636    0.1818
  band No.  band energies     occupation 
      1      -3.7276      2.00000
      2      -0.6236      2.00000
      3       1.7176      2.00000
      4       2.8636      2.00000
      5       8.3845      0.00000
      6       9.0409      0.00000
      7       9.5311      0.00000
      8      12.8659      0.00000

 k-point    54 :      -0.3636    0.3636    0.1818
  band No.  band energies     occupation 
      1      -3.1161      2.00000
      2      -1.3019      2.00000
      3       1.4436      2.00000
      4       2.5529      2.00000
      5       8.7615      0.00000
      6       9.0857      0.00000
      7      10.3274      0.00000
      8      12.1488      0.00000

 k-point    55 :      -0.3636    0.4545    0.1818
  band No.  band energies     occupation 
      1      -2.7170      2.00000
      2      -1.6499      2.00000
      3       1.6735      2.00000
      4       2.0488      2.00000
      5       8.3050      0.00000
      6       8.5136      0.00000
      7      10.8279      0.00000
      8      12.3814      0.00000

 k-point    56 :      -0.2727    0.4545    0.1818
  band No.  band energies     occupation 
      1      -2.5259      2.00000
      2      -1.8085      2.00000
      3       1.4030      2.00000
      4       2.0837      2.00000
      5       8.6516      0.00000
      6       9.9339      0.00000
      7      10.5796      0.00000
      8      10.6050      0.00000


--------------------------------------------------------------------------------------------------------


 soft charge-density along one line, spin component           1
         0         1         2         3         4         5         6         7         8         9
 total charge-density along one line
 
 pseudopotential strength for first ion, spin component:           1
 19.500  -0.001  -0.000  -0.000  -0.000   0.000   0.000   0.000
 -0.001   0.006   0.000   0.000   0.000  -0.000  -0.000  -0.000
 -0.000   0.000   4.367  -0.000  -0.000  -0.005   0.000   0.000
 -0.000   0.000  -0.000   4.367  -0.000   0.000  -0.005   0.000
 -0.000   0.000  -0.000  -0.000   4.367   0.000   0.000  -0.005
  0.000  -0.000  -0.005   0.000   0.000   0.005  -0.000  -0.000
  0.000  -0.000   0.000  -0.005   0.000  -0.000   0.005  -0.000
  0.000  -0.000   0.000   0.000  -0.005  -0.000  -0.000   0.005
 total augmentation occupancy for first ion, spin component:           1
  1.503  -0.822  -0.000  -0.000  -0.000  -0.000  -0.000  -0.000
 -0.822   0.819   0.000   0.000   0.000   0.000  -0.000   0.000
 -0.000   0.000   0.999  -0.000  -0.000  -0.646  -0.000   0.000
 -0.000  -0.000  -0.000   0.999   0.000  -0.000  -0.646  -0.000
  0.000  -0.000  -0.000   0.000   0.999  -0.000  -0.000  -0.646
  0.000  -0.000  -0.646   0.000   0.000   0.472   0.000  -0.000
 -0.000  -0.000   0.000  -0.646  -0.000   0.000   0.472   0.000
  0.000   0.000   0.000   0.000  -0.646  -0.000  -0.000   0.472


------------------------ aborting loop because EDIFF is reached ----------------------------------------


    CHARGE:  cpu time    0.02: real time    0.02
    FORLOC:  cpu time    0.00: real time    0.00
    FORNL :  cpu time    0.03: real time    0.03
    STRESS:  cpu time    0.12: real time    0.12
    FORCOR:  cpu time    0.01: real time    0.01
    FORHAR:  cpu time    0.01: real time    0.01
    MIXING:  cpu time    0.00: real time    0.00
    OFIELD:  cpu time    0.00: real time    0.00

  FORCE on cell =-STRESS in cart. coord.  units (eV):
  Direction    XX          YY          ZZ          XY          YZ          ZX
  --------------------------------------------------------------------------------------
  Alpha Z     2.27971     2.27971     2.27971
  Ewald     -75.21821   -75.21821   -75.21821     0.00000     0.00000    -0.00000
  Hartree     5.09543     5.09543     5.09543     0.00000     0.00000     0.00000
  E(xc)     -25.72603   -25.72603   -25.72603     0.00000     0.00000     0.00000
  Local     -31.16136   -31.16136   -31.16136     0.00007     0.00007     0.00007
  n-local    80.89142    82.32027    76.38829     2.27454    -1.30889     0.53750
  augment   -12.50212   -12.50212   -12.50212    -0.00006    -0.00006    -0.00006
  Kinetic    58.31336    55.75029    54.30362     3.58892    -0.64932     1.00880
  Fock        0.00000     0.00000     0.00000     0.00000     0.00000     0.00000
  -------------------------------------------------------------------------------------
  Total      -1.24350    -1.24350    -1.24350     0.00000    -0.00000    -0.00000
  in kB     -47.89928   -47.89928   -47.89928     0.00000    -0.00000    -0.00000
  external pressure =      -47.90 kB  Pullay stress =        0.00 kB


 VOLUME and BASIS-vectors are now :
 -----------------------------------------------------------------------------
  energy-cutoff  :      240.00
  volume of cell :       41.59
      direct lattice vectors                 reciprocal lattice vectors
     0.000000000  2.750000000  2.750000000    -0.181818182  0.181818182  0.181818182
     2.750000000  0.000000000  2.750000000     0.181818182 -0.181818182  0.181818182
     2.750000000  2.750000000  0.000000000     0.181818182  0.181818182 -0.181818182

  length of vectors
     3.889087297  3.889087297  3.889087297     0.314918329  0.314918329  0.314918329


 FORCES acting on ions
    electron-ion (+dipol)            ewald-force                    non-local-force                 convergence-correction
 -----------------------------------------------------------------------------------------------
   -.104E-05 -.104E-05 0.269E-06   -.224E-14 0.478E-15 0.477E-15   0.167E-15 -.763E-16 0.486E-16   -.212E-05 -.212E-05 -.212E-05
   0.104E-05 0.104E-05 -.269E-06   0.208E-14 -.115E-14 -.887E-15   -.971E-16 0.000E+00 0.486E-16   0.212E-05 0.212E-05 0.212E-05
 -----------------------------------------------------------------------------------------------
   -.125E-12 -.317E-13 0.327E-13   -.158E-15 -.674E-15 -.410E-15   0.694E-16 -.763E-16 0.971E-16   0.362E-15 -.303E-15 -.349E-15
 
 
 POSITION                                       TOTAL-FORCE (eV/Angst)
 -----------------------------------------------------------------------------------
      4.81250      4.81250      4.81250        -0.000000     -0.000000     -0.000000
      0.68750      0.68750      0.68750         0.000000      0.000000      0.000000
 -----------------------------------------------------------------------------------
    total drift:                               -0.000000     -0.000000      0.000000


--------------------------------------------------------------------------------------------------------



  FREE ENERGIE OF THE ION-ELECTRON SYSTEM (eV)
  ---------------------------------------------------
  free  energy   TOTEN  =       -11.86123390 eV

  energy  without entropy=      -11.86123377  energy(sigma->0) =      -11.86123384
 


--------------------------------------------------------------------------------------------------------


    POTLOK:  cpu time    0.01: real time    0.01


--------------------------------------------------------------------------------------------------------




--------------------------------------------------------------------------------------------------------


    WAVPRE:  cpu time    0.00: real time    0.00
 FEWALD executed in parallel
    FEWALD:  cpu time    0.00: real time    0.00
    GENKIN:  cpu time    0.01: real time    0.01
    ORTHCH:  cpu time    0.01: real time    0.01
     LOOP+:  cpu time    3.14: real time    3.19


----------------------------------------- Iteration    2(   1)  ---------------------------------------


    POTLOK:  cpu time    0.00: real time    0.01
    SETDIJ:  cpu time    0.00: real time    0.00
     EDDAV:  cpu time    0.28: real time    0.28
       DOS:  cpu time    0.00: real time    0.00
    CHARGE:  cpu time    0.02: real time    0.02
    MIXING:  cpu time    0.00: real time    0.00
    --------------------------------------------
      LOOP:  cpu time    0.31: real time    0.31

 eigenvalue-minimisations  :  1072
 total energy-change (2. order) :-0.7596419E-01  (-0.1933225E+00)
 number of electron       7.9999994 magnetization 
 augmentation part       -0.4769067 magnetization 

 Broyden mixing:
  rms(total) = 0.90259E-01    rms(broyden)= 0.90086E-01
  rms(prec ) = 0.33056E+00
  weight for this iteration     100.00

 Free energy of the ion-electron system (eV)
  ---------------------------------------------------
  alpha Z        PSCENC =         2.49780455
  Ewald energy   TEWEN  =      -232.63232267
  -Hartree energ DENC   =       -15.75728703
  -exchange      EXHF   =         0.00000000
  -V(xc)+E(xc)   XCENC  =       -17.76461664
  PAW double counting   =        74.82666739      -40.19563067
  entropy T*S    EENTRO =        -0.00010911
  eigenvalues    EBANDS =        10.23302403
  atomic energy  EATOM  =       206.85524113
  ---------------------------------------------------
  free energy    TOTEN  =       -11.93722902 eV

  energy without entropy =      -11.93711991  energy(sigma->0) =      -11.93717446


--------------------------------------------------------------------------------------------------------




----------------------------------------- Iteration    2(   2)  ---------------------------------------


    POTLOK:  cpu time    0.00: real time    0.01
    SETDIJ:  cpu time    0.00: real time    0.00
     EDDAV:  cpu time    0.31: real time    0.31
       DOS:  cpu time    0.00: real time    0.00
    CHARGE:  cpu time    0.02: real time    0.02
    MIXING:  cpu time    0.00: real time    0.00
    --------------------------------------------
      LOOP:  cpu time    0.33: real time    0.35

 eigenvalue-minimisations  :  1160
 total energy-change (2. order) : 0.3845771E-01  (-0.3728627E-02)
 number of electron       7.9999994 magnetization 
 augmentation part       -0.4804414 magnetization 

 Broyden mixing:
  rms(total) = 0.49855E-01    rms(broyden)= 0.49845E-01
  rms(prec ) = 0.18084E+00
  weight for this iteration     100.00

 eigenvalues of (default mixing * dielectric matrix)
  average eigenvalue GAMMA=   2.1774
  2.1774

 Free energy of the ion-electron system (eV)
  ---------------------------------------------------
  alpha Z        PSCENC =         2.49780455
  Ewald energy   TEWEN  =      -232.63232267
  -Hartree energ DENC   =       -15.02075041
  -exchange      EXHF   =         0.00000000
  -V(xc)+E(xc)   XCENC  =       -17.77538381
  PAW double counting   =        75.53645120      -40.92232334
  entropy T*S    EENTRO =        -0.00003509
  eigenvalues    EBANDS =         9.56254713
  atomic energy  EATOM  =       206.85524113
  ---------------------------------------------------
  free energy    TOTEN  =       -11.89877131 eV

  energy without entropy =      -11.89873622  energy(sigma->0) =      -11.89875377


--------------------------------------------------------------------------------------------------------




----------------------------------------- Iteration    2(   3)  ---------------------------------------


    POTLOK:  cpu time    0.00: real time    0.01
    SETDIJ:  cpu time    0.00: real time    0.00
     EDDAV:  cpu time    0.28: real time    0.28
       DOS:  cpu time    0.00: real time    0.00
[...]
      7      10.6393      0.00000
      8      12.8592      0.00000

 k-point    22 :      -0.3636    0.1818    0.0000
  band No.  band energies     occupation 
      1      -3.6663      2.00000
      2      -0.5084      2.00000
      3       2.6386      2.00000
      4       4.4437      2.00000
      5       8.1734      0.00000
      6      10.2421      0.00000
      7      10.4117      0.00000
      8      13.6956      0.00000

 k-point    23 :      -0.2727    0.1818    0.0000
  band No.  band energies     occupation 
      1      -4.3566      2.00000
      2       0.6399      2.00000
      3       2.7129      2.00000
      4       4.8413      2.00000
      5       8.5689      0.00000
      6      10.1764      0.00000
      7      10.2864      0.00000
      8      12.2989      0.00000

 k-point    24 :      -0.1818    0.1818    0.0000
  band No.  band energies     occupation 
      1      -4.9858      2.00000
      2       1.8571      2.00000
      3       3.1997      2.00000
      4       5.2663      2.00000
      5       8.9315      0.00000
      6       9.6906      0.00000
      7       9.9774      0.00000
      8      11.6088      0.00000

 k-point    25 :       0.2727    0.2727    0.0000
  band No.  band energies     occupation 
      1      -4.8234      2.00000
      2       2.0211      2.00000
      3       3.8659      2.00000
      4       3.8659      2.00000
      5       6.8561      0.00000
      6       8.6613      0.00000
      7      12.1430      0.00000
      8      12.1430      0.00000

 k-point    26 :       0.3636    0.2727    0.0000
  band No.  band energies     occupation 
      1      -4.3005      2.00000
      2       1.0518      2.00000
      3       3.3076      2.00000
      4       3.6309      2.00000
      5       6.9917      0.00000
      6       8.3684      0.00000
      7      12.4406      0.00000
      8      12.6068      0.00000

 k-point    27 :       0.4545    0.2727    0.0000
  band No.  band energies     occupation 
      1      -3.6268      2.00000
      2       0.0004      2.00000
      3       2.5549      2.00000
      4       3.5695      2.00000
      5       7.1837      0.00000
      6       9.1525      0.00000
      7      12.2768      0.00000
      8      12.4548      0.00000

 k-point    28 :      -0.4545    0.2727    0.0000
  band No.  band energies     occupation 
      1      -2.9934      2.00000
      2      -0.8267      2.00000
      3       1.9651      2.00000
      4       3.6850      2.00000
      5       7.3179      0.00000
      6      10.6511      0.00000
      7      12.1067      0.00000
      8      12.1143      0.00000

 k-point    29 :      -0.3636    0.2727    0.0000
  band No.  band energies     occupation 
      1      -3.0489      2.00000
      2      -0.7466      2.00000
      3       1.6687      2.00000
      4       3.9666      2.00000
      5       7.6204      0.00000
      6      11.7517      0.00000
      7      11.7595      0.00000
      8      12.6999      0.00000

 k-point    30 :      -0.2727    0.2727    0.0000
  band No.  band energies     occupation 
      1      -3.7014      2.00000
      2       0.0318      2.00000
      3       1.8296      2.00000
      4       4.3796      2.00000
      5       8.0895      0.00000
      6      11.1638      0.00000
      7      11.4890      0.00000
      8      12.3784      0.00000

 k-point    31 :       0.3636    0.3636    0.0000
  band No.  band energies     occupation 
      1      -3.8368      2.00000
      2       0.3832      2.00000
      3       3.3501      2.00000
      4       3.3501      2.00000
      5       6.4812      0.00004
      6       7.4951      0.00000
      7      13.8174      0.00000
      8      13.8174      0.00000

 k-point    32 :       0.4545    0.3636    0.0000
  band No.  band energies     occupation 
      1      -3.2032      2.00000
      2      -0.4431      2.00000
      3       2.7889      2.00000
      4       3.2438      2.00000
      5       6.6898      0.00000
      6       7.5245      0.00000
      7      14.1428      0.00000
      8      14.1543      0.00000

 k-point    33 :      -0.4545    0.3636    0.0000
  band No.  band energies     occupation 
      1      -2.5117      2.00000
      2      -1.1725      2.00000
      3       1.9747      2.00000
      4       3.3189      2.00000
      5       6.8553      0.00000
      6       8.7494      0.00000
      7      13.8476      0.00000
      8      14.0115      0.00000

 k-point    34 :      -0.3636    0.3636    0.0000
  band No.  band energies     occupation 
      1      -2.4369      2.00000
      2      -1.2118      2.00000
      3       1.4698      2.00000
      4       3.5691      2.00000
      5       7.1433      0.00000
      6      10.4987      0.00000
      7      13.1682      0.00000
      8      13.7063      0.00000

 k-point    35 :       0.4545    0.4545    0.0000
  band No.  band energies     occupation 
      1      -2.6104      2.00000
      2      -1.1847      2.00000
      3       3.0875      2.00000
      4       3.0875      2.00000
      5       6.4306      0.00065
      6       6.7538      0.00000
      7      15.5374      0.00000
      8      15.5374      0.00000

 k-point    36 :      -0.4545    0.4545    0.0000
  band No.  band energies     occupation 
      1      -1.9504      2.00000
      2      -1.8404      2.00000
      3       2.6187      2.00000
      4       3.1133      2.00000
      5       6.6112      0.00000
      6       7.2178      0.00000
      7      15.4593      0.00000
      8      15.7059      0.00000

 k-point    37 :       0.2727    0.1818    0.0909
  band No.  band energies     occupation 
      1      -5.4029      2.00000
      2       2.9152      2.00000
      3       4.0714      2.00000
      4       5.1255      2.00000
      5       8.2425      0.00000
      6       9.6011      0.00000
      7      10.3381      0.00000
      8      10.6895      0.00000

 k-point    38 :       0.3636    0.1818    0.0909
  band No.  band energies     occupation 
      1      -4.8803      2.00000
      2       1.5700      2.00000
      3       3.5014      2.00000
      4       4.7970      2.00000
      5       8.5645      0.00000
      6       9.5295      0.00000
      7      10.6271      0.00000
      8      10.8356      0.00000

 k-point    39 :       0.4545    0.1818    0.0909
  band No.  band energies     occupation 
      1      -4.2071      2.00000
      2       0.1953      2.00000
      3       3.2466      2.00000
      4       4.4429      2.00000
      5       8.6103      0.00000
      6       9.2707      0.00000
      7      10.7592      0.00000
      8      11.6712      0.00000

 k-point    40 :      -0.4545    0.1818    0.0909
  band No.  band energies     occupation 
      1      -3.5728      2.00000
      2      -0.8146      2.00000
      3       3.1494      2.00000
      4       4.2255      2.00000
      5       8.6029      0.00000
      6       9.0311      0.00000
      7      10.6861      0.00000
      8      13.1599      0.00000

 k-point    41 :       0.3636    0.2727    0.0909
  band No.  band energies     occupation 
      1      -4.6925      2.00000
      2       1.6246      2.00000
      3       3.3400      2.00000
      4       4.0873      2.00000
      5       7.6558      0.00000
      6       9.1826      0.00000
      7      10.9576      0.00000
      8      12.0176      0.00000

 k-point    42 :       0.4545    0.2727    0.0909
  band No.  band energies     occupation 
      1      -4.0621      2.00000
      2       0.5229      2.00000
      3       2.7518      2.00000
      4       3.7611      2.00000
      5       8.0168      0.00000
      6       9.6056      0.00000
      7      10.6359      0.00000
      8      12.4098      0.00000

 k-point    43 :      -0.4545    0.2727    0.0909
  band No.  band energies     occupation 
      1      -3.3708      2.00000
      2      -0.5161      2.00000
      3       2.3612      2.00000
      4       3.5997      2.00000
      5       8.1469      0.00000
      6      10.1927      0.00000
      7      11.0317      0.00000
      8      12.3624      0.00000

 k-point    44 :      -0.3636    0.2727    0.0909
  band No.  band energies     occupation 
      1      -3.0931      2.00000
      2      -0.8793      2.00000
      3       2.1245      2.00000
      4       3.6926      2.00000
      5       8.3677      0.00000
      6       9.9274      0.00000
      7      12.2371      0.00000
      8      12.7251      0.00000

 k-point    45 :      -0.2727    0.2727    0.0909
  band No.  band energies     occupation 
      1      -3.6165      2.00000
      2      -0.1658      2.00000
      3       2.1062      2.00000
      4       3.9976      2.00000
      5       8.7474      0.00000
      6       9.7330      0.00000
      7      11.4930      0.00000
      8      12.1553      0.00000

 k-point    46 :      -0.1818    0.2727    0.0909
  band No.  band energies     occupation 
      1      -4.3084      2.00000
      2       0.8388      2.00000
      3       2.4866      2.00000
      4       4.4265      2.00000
      5       9.2184      0.00000
      6       9.3186      0.00000
      7      10.5669      0.00000
      8      11.7068      0.00000

 k-point    47 :       0.4545    0.3636    0.0909
  band No.  band energies     occupation 
      1      -3.7241      2.00000
      2       0.2450      2.00000
      3       2.8548      2.00000
      4       3.2591      2.00000
      5       7.2812      0.00000
      6       8.1209      0.00000
      7      12.3521      0.00000
      8      13.7861      0.00000

 k-point    48 :      -0.4545    0.3636    0.0909
  band No.  band energies     occupation 
      1      -3.0280      2.00000
      2      -0.5912      2.00000
      3       2.1845      2.00000
      4       3.0737      2.00000
      5       7.6227      0.00000
      6       8.9687      0.00000
      7      11.9858      0.00000
      8      14.1542      0.00000

 k-point    49 :      -0.3636    0.3636    0.0909
  band No.  band energies     occupation 
      1      -2.5415      2.00000
      2      -1.1059      2.00000
      3       1.6425      2.00000
      4       3.1940      2.00000
      5       7.8411      0.00000
      6      10.5584      0.00000
      7      11.6815      0.00000
      8      13.2946      0.00000

 k-point    50 :      -0.2727    0.3636    0.0909
  band No.  band energies     occupation 
      1      -2.9370      2.00000
      2      -0.6984      2.00000
      3       1.5340      2.00000
      4       3.5267      2.00000
      5       8.2266      0.00000
      6      11.0094      0.00000
      7      11.7636      0.00000
      8      12.6580      0.00000

 k-point    51 :      -0.4545    0.4545    0.0909
  band No.  band energies     occupation 
      1      -2.5334      2.00000
      2      -1.1792      2.00000
      3       2.6584      2.00000
      4       2.7833      2.00000
      5       7.1982      0.00000
      6       7.4621      0.00000
      7      13.8932      0.00000
      8      15.3449      0.00000

 k-point    52 :      -0.3636    0.4545    0.0909
  band No.  band energies     occupation 
      1      -2.0108      2.00000
      2      -1.6359      2.00000
      3       1.9646      2.00000
      4       2.8578      2.00000
      5       7.4812      0.00000
      6       8.7618      0.00000
      7      13.4284      0.00000
      8      13.6589      0.00000

 k-point    53 :      -0.4545    0.3636    0.1818
  band No.  band energies     occupation 
      1      -3.4041      2.00000
      2      -0.1588      2.00000
      3       2.0661      2.00000
      4       3.2742      2.00000
      5       8.9802      0.00000
      6       9.5869      0.00000
      7      10.2622      0.00000
      8      13.6768      0.00000

 k-point    54 :      -0.3636    0.3636    0.1818
  band No.  band energies     occupation 
      1      -2.7516      2.00000
      2      -0.8751      2.00000
      3       1.7778      2.00000
      4       2.9414      2.00000
      5       9.3306      0.00000
      6       9.7313      0.00000
      7      11.0205      0.00000
      8      12.9188      0.00000

 k-point    55 :      -0.3636    0.4545    0.1818
  band No.  band energies     occupation 
      1      -2.3379      2.00000
      2      -1.2185      2.00000
      3       2.0123      2.00000
      4       2.4043      2.00000
      5       8.8838      0.00000
      6       9.0823      0.00000
      7      11.5635      0.00000
      8      13.1669      0.00000

 k-point    56 :      -0.2727    0.4545    0.1818
  band No.  band energies     occupation 
      1      -2.1292      2.00000
      2      -1.3877      2.00000
      3       1.7186      2.00000
      4       2.4429      2.00000
      5       9.2323      0.00000
      6      10.5136      0.00000
      7      11.3255      0.00000
      8      11.3524      0.00000


--------------------------------------------------------------------------------------------------------


 soft charge-density along one line, spin component           1
         0         1         2         3         4         5         6         7         8         9
 total charge-density along one line
 
 pseudopotential strength for first ion, spin component:           1
 19.433  -0.001  -0.000  -0.000  -0.000   0.000   0.000   0.000
 -0.001   0.006   0.000   0.000   0.000  -0.000  -0.000  -0.000
 -0.000   0.000   4.360  -0.000  -0.000  -0.005   0.000   0.000
 -0.000   0.000  -0.000   4.360  -0.000   0.000  -0.005   0.000
 -0.000   0.000  -0.000  -0.000   4.360   0.000   0.000  -0.005
  0.000  -0.000  -0.005   0.000   0.000   0.005  -0.000  -0.000
  0.000  -0.000   0.000  -0.005   0.000  -0.000   0.005  -0.000
  0.000  -0.000   0.000   0.000  -0.005  -0.000  -0.000   0.005
 total augmentation occupancy for first ion, spin component:           1
  1.493  -0.872  -0.000  -0.000  -0.000  -0.000  -0.000   0.000
 -0.872   0.900   0.000   0.000   0.000  -0.000   0.000  -0.000
  0.000   0.000   1.036   0.000   0.000  -0.676   0.000  -0.000
 -0.000  -0.000   0.000   1.036   0.000   0.000  -0.676  -0.000
 -0.000  -0.000   0.000  -0.000   1.036   0.000   0.000  -0.676
 -0.000  -0.000  -0.676   0.000  -0.000   0.503   0.000   0.000
 -0.000   0.000   0.000  -0.676   0.000   0.000   0.503  -0.000
 -0.000  -0.000  -0.000   0.000  -0.676  -0.000  -0.000   0.503


------------------------ aborting loop because EDIFF is reached ----------------------------------------


    CHARGE:  cpu time    0.02: real time    0.02
    FORLOC:  cpu time    0.00: real time    0.00
    FORNL :  cpu time    0.03: real time    0.03
    STRESS:  cpu time    0.12: real time    0.12
    FORCOR:  cpu time    0.01: real time    0.01
    FORHAR:  cpu time    0.00: real time    0.01
    MIXING:  cpu time    0.00: real time    0.00
    OFIELD:  cpu time    0.00: real time    0.00

  FORCE on cell =-STRESS in cart. coord.  units (eV):
  Direction    XX          YY          ZZ          XY          YZ          ZX
  --------------------------------------------------------------------------------------
  Alpha Z     2.41006     2.41006     2.41006
  Ewald     -76.62526   -76.62526   -76.62526     0.00000     0.00000     0.00000
  Hartree     4.87897     4.87897     4.87897     0.00000     0.00000     0.00000
  E(xc)     -26.05506   -26.05506   -26.05506     0.00000     0.00000     0.00000
  Local     -30.35451   -30.35451   -30.35451     0.00007     0.00006     0.00006
  n-local    81.89566    83.33983    77.34209     2.39183    -1.39785     0.58880
  augment   -12.52285   -12.52285   -12.52285    -0.00005    -0.00005    -0.00005
  Kinetic    59.62421    56.59686    56.01048     3.58808    -0.55505     1.01936
  Fock        0.00000     0.00000     0.00000     0.00000     0.00000     0.00000
  -------------------------------------------------------------------------------------
  Total       0.00106     0.00106     0.00106     0.00000     0.00000     0.00000
  in kB       0.04321     0.04321     0.04321     0.00000     0.00000     0.00000
  external pressure =        0.04 kB  Pullay stress =        0.00 kB


 VOLUME and BASIS-vectors are now :
 -----------------------------------------------------------------------------
  energy-cutoff  :      240.00
  volume of cell :       39.34
      direct lattice vectors                 reciprocal lattice vectors
    -0.000000000  2.699502433  2.699502433    -0.185219318  0.185219318  0.185219318
     2.699502433 -0.000000000  2.699502433     0.185219318 -0.185219318  0.185219318
     2.699502433  2.699502433 -0.000000000     0.185219318  0.185219318 -0.185219318

  length of vectors
     3.817672953  3.817672953  3.817672953     0.320809270  0.320809270  0.320809270


 FORCES acting on ions
    electron-ion (+dipol)            ewald-force                    non-local-force                 convergence-correction
 -----------------------------------------------------------------------------------------------
   -.856E-06 -.856E-06 -.110E-05   -.195E-15 -.154E-14 -.224E-14   -.520E-16 -.416E-16 0.694E-17   -.129E-06 -.129E-06 -.129E-06
   0.856E-06 0.856E-06 0.110E-05   0.622E-16 0.159E-14 0.286E-14   0.729E-16 0.132E-15 0.208E-16   0.129E-06 0.129E-06 0.129E-06
 -----------------------------------------------------------------------------------------------
   -.127E-12 -.400E-13 0.368E-13   -.133E-15 0.497E-16 0.622E-15   0.208E-16 0.902E-16 0.278E-16   -.115E-15 -.455E-15 -.205E-15
 
 
 POSITION                                       TOTAL-FORCE (eV/Angst)
 -----------------------------------------------------------------------------------
      4.72413      4.72413      4.72413         0.000000      0.000000      0.000000
      0.67488      0.67488      0.67488        -0.000000     -0.000000     -0.000000
 -----------------------------------------------------------------------------------
    total drift:                               -0.000000     -0.000000      0.000000


--------------------------------------------------------------------------------------------------------



  FREE ENERGIE OF THE ION-ELECTRON SYSTEM (eV)
  ---------------------------------------------------
  free  energy   TOTEN  =       -11.89672915 eV

  energy  without entropy=      -11.89672757  energy(sigma->0) =      -11.89672836
 
 d Force = 0.0000000E+00[ 0.000E+00, 0.000E+00]  d Energy = 0.1561484E-01-0.156E-01
 d Force = 0.0000000E+00[ 0.000E+00, 0.000E+00]  d Ewald  =-0.2756638E+01 0.276E+01


--------------------------------------------------------------------------------------------------------


    POTLOK:  cpu time    0.01: real time    0.01


--------------------------------------------------------------------------------------------------------




--------------------------------------------------------------------------------------------------------


  
 reached required accuracy - stopping structural energy minimisation
 writing wavefunctions
     LOOP+:  cpu time    1.37: real time    2.83
    4ORBIT:  cpu time    0.00: real time    0.00

 total amount of memory used by VASP on root node    36992. kBytes
========================================================================

   base      :      30000. kBytes
   nonl-proj :       1301. kBytes
   fftplans  :       1184. kBytes
   grid      :       1806. kBytes
   one-center:          6. kBytes
   wavefun   :       2695. kBytes
 
  
  
 General timing and accounting informations for this job:
 ========================================================
  
                  Total CPU time used (sec):        6.406
                            User time (sec):        6.372
                          System time (sec):        0.034
                         Elapsed time (sec):        8.187
  
                   Maximum memory used (kb):       37964.
                   Average memory used (kb):           0.
  
                          Minor page faults:         5564
                          Major page faults:            0
                 Voluntary context switches:          551
