<?xml version="1.0" encoding="ISO-8859-1"?>
<modeling>
 <generator>
  <i name="program" type="string">vasp </i>
  <i name="version" type="string">5.3.5  </i>
  <i name="subversion" type="string">31Mar14 (build Feb  5 2015 19:39:53) complex                          parallel </i>
  <i name="platform" type="string">HPCUofA </i>
  <i name="date" type="string">2017 11 12 </i>
  <i name="time" type="string">22:49:20 </i>
 </generator>
 <incar>
  <i type="string" name="SYSTEM"> diamond Si</i>
  <i type="int" name="ISTART">     0</i>
  <i type="string" name="PREC">normal</i>
  <i type="int" name="ICHARG">     2</i>
  <i type="int" name="IBRION">     2</i>
  <i type="int" name="NSW">     5</i>
  <i type="int" name="ISIF">     3</i>
  <i name="ENCUT">    240.00000000</i>
  <i type="int" name="ISMEAR">     0</i>
  <i name="SIGMA">      0.10000000</i>
 </incar>
 <kpoints>
  <generation param="Monkhorst-Pack">
   <v type="int" name="divisions">      11       11       11 </v>
   <v name="usershift">      0.00000000       0.00000000       0.00000000 </v>
   <v name="genvec1">      0.09090909       0.00000000       0.00000000 </v>
   <v name="genvec2">      0.00000000       0.09090909       0.00000000 </v>
   <v name="genvec3">      0.00000000       0.00000000       0.09090909 </v>
   <v name="shift">      0.00000000       0.00000000       0.00000000 </v>
  </generation>
  <varray name="kpointlist" >
   <v>       0.00000000       0.00000000       0.00000000 </v>
   <v>       0.09090909       0.00000000       0.00000000 </v>
   <v>       0.18181818       0.00000000       0.00000000 </v>
   <v>       0.27272727       0.00000000       0.00000000 </v>
   <v>       0.36363636       0.00000000       0.00000000 </v>
   <v>       0.45454545       0.00000000       0.00000000 </v>
   <v>       0.09090909       0.09090909       0.00000000 </v>
   <v>       0.18181818       0.09090909       0.00000000 </v>
   <v>       0.27272727       0.09090909       0.00000000 </v>
   <v>       0.36363636       0.09090909       0.00000000 </v>
   <v>       0.45454545       0.09090909       0.00000000 </v>
   <v>      -0.45454545       0.09090909       0.00000000 </v>
   <v>      -0.36363636       0.09090909       0.00000000 </v>
   <v>      -0.27272727       0.09090909       0.00000000 </v>
   <v>      -0.18181818       0.09090909       0.00000000 </v>
   <v>      -0.09090909       0.09090909       0.00000000 </v>
   <v>       0.18181818       0.18181818       0.00000000 </v>
   <v>       0.27272727       0.18181818       0.00000000 </v>
   <v>       0.36363636       0.18181818       0.00000000 </v>
   <v>       0.45454545       0.18181818       0.00000000 </v>
   <v>      -0.45454545       0.18181818       0.00000000 </v>
   <v>      -0.36363636       0.18181818       0.00000000 </v>
   <v>      -0.27272727       0.18181818       0.00000000 </v>
   <v>      -0.18181818       0.18181818       0.00000000 </v>
   <v>       0.27272727       0.27272727       0.00000000 </v>
   <v>       0.36363636       0.27272727       0.00000000 </v>
   <v>       0.45454545       0.27272727       0.00000000 </v>
   <v>      -0.45454545       0.27272727       0.00000000 </v>
   <v>      -0.36363636       0.27272727       0.00000000 </v>
   <v>      -0.27272727       0.27272727       0.00000000 </v>
   <v>       0.36363636       0.36363636       0.00000000 </v>
   <v>       0.45454545       0.36363636       0.00000000 </v>
   <v>      -0.45454545       0.36363636       0.00000000 </v>
   <v>      -0.36363636       0.36363636       0.00000000 </v>
   <v>       0.45454545       0.45454545       0.00000000 </v>
   <v>      -0.45454545       0.45454545       0.00000000 </v>
   <v>       0.27272727       0.18181818       0.09090909 </v>
   <v>       0.36363636       0.18181818       0.09090909 </v>
   <v>       0.45454545       0.18181818       0.09090909 </v>
   <v>      -0.45454545       0.18181818       0.09090909 </v>
   <v>       0.36363636       0.27272727       0.09090909 </v>
   <v>       0.45454545       0.27272727       0.09090909 </v>
   <v>      -0.45454545       0.27272727       0.09090909 </v>
   <v>      -0.36363636       0.27272727       0.09090909 </v>
   <v>      -0.27272727       0.27272727       0.09090909 </v>
   <v>      -0.18181818       0.27272727       0.09090909 </v>
   <v>       0.45454545       0.36363636       0.09090909 </v>
   <v>      -0.45454545       0.36363636       0.09090909 </v>
   <v>      -0.36363636       0.36363636       0.09090909 </v>
   <v>      -0.27272727       0.36363636       0.09090909 </v>
   <v>      -0.45454545       0.45454545       0.09090909 </v>
   <v>      -0.36363636       0.45454545       0.09090909 </v>
   <v>      -0.45454545       0.36363636       0.18181818 </v>
   <v>      -0.36363636       0.36363636       0.18181818 </v>
   <v>      -0.36363636       0.45454545       0.18181818 </v>
   <v>      -0.27272727       0.45454545       0.18181818 </v>
  </varray>
  <varray name="weights" >
   <v>       0.00075131 </v>
   <v>       0.00601052 </v>
   <v>       0.00601052 </v>
   <v>       0.00601052 </v>
   <v>       0.00601052 </v>
   <v>       0.00601052 </v>
   <v>       0.00450789 </v>
   <v>       0.01803156 </v>
   <v>       0.01803156 </v>
   <v>       0.01803156 </v>
   <v>       0.01803156 </v>
   <v>       0.01803156 </v>
   <v>       0.01803156 </v>
   <v>       0.01803156 </v>
   <v>       0.01803156 </v>
   <v>       0.00901578 </v>
   <v>       0.00450789 </v>
   <v>       0.01803156 </v>
   <v>       0.01803156 </v>
   <v>       0.01803156 </v>
   <v>       0.01803156 </v>
   <v>       0.01803156 </v>
   <v>       0.01803156 </v>
   <v>       0.00901578 </v>
   <v>       0.00450789 </v>
   <v>       0.01803156 </v>
   <v>       0.01803156 </v>
   <v>       0.01803156 </v>
   <v>       0.01803156 </v>
   <v>       0.00901578 </v>
   <v>       0.00450789 </v>
   <v>       0.01803156 </v>
   <v>       0.01803156 </v>
   <v>       0.00901578 </v>
   <v>       0.00450789 </v>
   <v>       0.00901578 </v>
   <v>       0.01803156 </v>
   <v>       0.03606311 </v>
   <v>       0.03606311 </v>
   <v>       0.03606311 </v>
   <v>       0.01803156 </v>
   <v>       0.03606311 </v>
   <v>       0.03606311 </v>
   <v>       0.03606311 </v>
   <v>       0.03606311 </v>
   <v>       0.01803156 </v>
   <v>       0.01803156 </v>
   <v>       0.03606311 </v>
   <v>       0.03606311 </v>
   <v>       0.01803156 </v>
   <v>       0.01803156 </v>
   <v>       0.01803156 </v>
   <v>       0.01803156 </v>
   <v>       0.03606311 </v>
   <v>       0.01803156 </v>
   <v>       0.01803156 </v>
  </varray>
 </kpoints>
 <parameters>
  <separator name="general" >
   <i type="string" name="SYSTEM">diamond Si</i>
   <i type="logical" name="LCOMPAT"> F  </i>
  </separator>
  <separator name="electronic" >
   <i type="string" name="PREC">normal</i>
   <i name="ENMAX">    240.00000000</i>
   <i name="ENAUG">    322.06900000</i>
   <i name="EDIFF">      0.00010000</i>
   <i type="int" name="IALGO">    38</i>
   <i type="int" name="IWAVPR">    11</i>
   <i type="int" name="NBANDS">     8</i>
   <i name="NELECT">      8.00000000</i>
   <i type="int" name="TURBO">     0</i>
   <i type="int" name="IRESTART">     0</i>
   <i type="int" name="NREBOOT">     0</i>
   <i type="int" name="NMIN">     0</i>
   <i name="EREF">      0.00000000</i>
   <separator name="electronic smearing" >
    <i type="int" name="ISMEAR">     0</i>
    <i name="SIGMA">      0.10000000</i>
    <i name="KSPACING">      0.50000000</i>
    <i type="logical" name="KGAMMA"> T  </i>
   </separator>
   <separator name="electronic projectors" >
    <i type="logical" name="LREAL"> F  </i>
    <v name="ROPT">      0.00000000</v>
    <i type="int" name="LMAXPAW">  -100</i>
    <i type="int" name="LMAXMIX">     2</i>
    <i type="logical" name="NLSPLINE"> F  </i>
   </separator>
   <separator name="electronic startup" >
    <i type="int" name="ISTART">     0</i>
    <i type="int" name="ICHARG">     2</i>
    <i type="int" name="INIWAV">     1</i>
   </separator>
   <separator name="electronic spin" >
    <i type="int" name="ISPIN">     1</i>
    <i type="logical" name="LNONCOLLINEAR"> F  </i>
    <v name="MAGMOM">      1.00000000      1.00000000</v>
    <i name="NUPDOWN">     -1.00000000</i>
    <i type="logical" name="LSORBIT"> F  </i>
    <v name="SAXIS">      0.00000000      0.00000000      1.00000000</v>
    <i type="logical" name="LSPIRAL"> F  </i>
    <v name="QSPIRAL">      0.00000000      0.00000000      0.00000000</v>
    <i type="logical" name="LZEROZ"> F  </i>
   </separator>
   <separator name="electronic exchange-correlation" >
    <i type="logical" name="LASPH"> F  </i>
    <i type="logical" name="LMETAGGA"> F  </i>
   </separator>
   <separator name="electronic convergence" >
    <i type="int" name="NELM">    60</i>
    <i type="int" name="NELMDL">    -5</i>
    <i type="int" name="NELMIN">     2</i>
    <i name="ENINI">    240.00000000</i>
    <separator name="electronic convergence detail" >
     <i type="logical" name="LDIAG"> T  </i>
     <i type="logical" name="LSUBROT"> F  </i>
     <i name="WEIMIN">      0.00100000</i>
     <i name="EBREAK">      0.00000313</i>
     <i name="DEPER">      0.30000000</i>
     <i type="int" name="NRMM">     4</i>
     <i name="TIME">      0.40000000</i>
    </separator>
   </separator>
   <separator name="electronic mixer" >
    <i name="AMIX">      0.40000000</i>
    <i name="BMIX">      1.00000000</i>
    <i name="AMIN">      0.10000000</i>
    <i name="AMIX_MAG">      1.60000000</i>
    <i name="BMIX_MAG">      1.00000000</i>
    <separator name="electronic mixer details" >
     <i type="int" name="IMIX">     4</i>
     <i type="int" name="MAXMIX">   -45</i>
     <i name="WC">    100.00000000</i>
     <i type="int" name="INIMIX">     1</i>
     <i type="int" name="MIXPRE">     1</i>
     <i type="int" name="MREMOVE">     5</i>
    </separator>
   </separator>
   <separator name="electronic dipolcorrection" >
    <i type="logical" name="LDIPOL"> F  </i>
    <i type="logical" name="LMONO"> F  </i>
    <i type="int" name="IDIPOL">     0</i>
    <i name="EPSILON">      1.00000000</i>
    <v name="DIPOL">   -100.00000000   -100.00000000   -100.00000000</v>
    <i name="EFIELD">      0.00000000</i>
   </separator>
  </separator>
  <separator name="grids" >
   <i type="int" name="NGX">    16</i>
   <i type="int" name="NGY">    16</i>
   <i type="int" name="NGZ">    16</i>
   <i type="int" name="NGXF">    32</i>
   <i type="int" name="NGYF">    32</i>
   <i type="int" name="NGZF">    32</i>
   <i type="logical" name="ADDGRID"> F  </i>
  </separator>
  <separator name="ionic" >
   <i type="int" name="NSW">     5</i>
   <i type="int" name="IBRION">     2</i>
   <i type="int" name="ISIF">     3</i>
   <i name="PSTRESS">      0.00000000</i>
   <i name="EDIFFG">      0.00100000</i>
   <i type="int" name="NFREE">     1</i>
   <i name="POTIM">      0.50000000</i>
   <i name="SMASS">     -3.00000000</i>
   <i name="SCALEE">      1.00000000</i>
  </separator>
  <separator name="ionic md" >
   <i name="TEBEG">      0.00010000</i>
   <i name="TEEND">      0.00010000</i>
   <i type="int" name="NBLOCK">     1</i>
   <i type="int" name="KBLOCK">     5</i>
   <i type="int" name="NPACO">   256</i>
   <i name="APACO">     16.00000000</i>
  </separator>
  <separator name="symmetry" >
   <i type="int" name="ISYM">     2</i>
   <i name="SYMPREC">      0.00001000</i>
  </separator>
  <separator name="dos" >
   <i type="logical" name="LORBIT"> F  </i>
   <v name="RWIGS">     -1.00000000</v>
   <i type="int" name="NEDOS">   301</i>
   <i name="EMIN">     10.00000000</i>
   <i name="EMAX">    -10.00000000</i>
   <i name="EFERMI">      0.00000000</i>
  </separator>
  <separator name="writing" >
   <i type="int" name="NWRITE">     2</i>
   <i type="logical" name="LWAVE"> T  </i>
   <i type="logical" name="LCHARG"> T  </i>
   <i type="logical" name="LPARD"> F  </i>
   <i type="logical" name="LVTOT"> F  </i>
   <i type="logical" name="LVHAR"> F  </i>
   <i type="logical" name="LELF"> F  </i>
   <i type="logical" name="LOPTICS"> F  </i>
   <v name="STM">      0.00000000      0.00000000      0.00000000      0.00000000      0.00000000      0.00000000      0.00000000</v>
  </separator>
  <separator name="performance" >
   <i type="int" name="NPAR">     1</i>
   <i type="int" name="NSIM">     4</i>
   <i type="int" name="NBLK">    -1</i>
   <i type="logical" name="LPLANE"> T  </i>
   <i type="logical" name="LSCALAPACK"> T  </i>
   <i type="logical" name="LSCAAWARE"> F  </i>
   <i type="logical" name="LSCALU"> F  </i>
   <i type="logical" name="LASYNC"> F  </i>
   <i type="logical" name="LORBITALREAL"> F  </i>
  </separator>
  <separator name="miscellaneous" >
   <i type="int" name="IDIOT">     3</i>
   <i type="logical" name="LMUSIC"> F  </i>
   <v name="POMASS">     28.08500000</v>
   <v name="DARWINR">      0.00000000</v>
   <v name="DARWINV">      1.00000000</v>
   <i type="logical" name="LCORR"> T  </i>
  </separator>
  <i type="logical" name="GGA_COMPAT"> T  </i>
  <i type="logical" name="LBERRY"> F  </i>
  <i type="int" name="ICORELEVEL">     0</i>
  <i type="logical" name="LDAU"> F  </i>
  <i type="int" name="I_CONSTRAINED_M">     0</i>
  <separator name="electronic exchange-correlation" >
   <i type="string" name="GGA">--</i>
   <i type="int" name="VOSKOWN">     0</i>
   <i type="logical" name="LHFCALC"> F  </i>
   <i type="string" name="PRECFOCK"></i>
   <i type="logical" name="LSYMGRAD"> F  </i>
   <i type="logical" name="LHFONE"> F  </i>
   <i type="logical" name="LRHFCALC"> F  </i>
   <i type="logical" name="LTHOMAS"> F  </i>
   <i type="logical" name="LMODELHF"> F  </i>
   <i name="ENCUT4O">     -1.00000000</i>
   <i type="int" name="EXXOEP">     0</i>
   <i type="int" name="FOURORBIT">     0</i>
   <i name="AEXX">      0.00000000</i>
   <i name="HFALPHA">      0.00000000</i>
   <i name="MCALPHA">      0.00000000</i>
   <i name="ALDAX">      1.00000000</i>
   <i name="AGGAX">      1.00000000</i>
   <i name="ALDAC">      1.00000000</i>
   <i name="AGGAC">      1.00000000</i>
   <i type="int" name="NKREDX">     1</i>
   <i type="int" name="NKREDY">     1</i>
   <i type="int" name="NKREDZ">     1</i>
   <i type="logical" name="SHIFTRED"> F  </i>
   <i type="logical" name="ODDONLY"> F  </i>
   <i type="logical" name="EVENONLY"> F  </i>
   <i type="int" name="LMAXFOCK">     0</i>
   <i type="int" name="NMAXFOCKAE">     0</i>
   <i type="logical" name="LFOCKAEDFT"> F  </i>
   <i name="HFSCREEN">      0.00000000</i>
   <i name="HFSCREENC">      0.00000000</i>
   <i type="int" name="NBANDSGWLOW">     0</i>
  </separator>
  <separator name="vdW DFT" >
   <i type="logical" name="LUSE_VDW"> F  </i>
   <i name="Zab_VDW">     -0.84910000</i>
   <i name="PARAM1">      0.12340000</i>
   <i name="PARAM2">      1.00000000</i>
   <i name="PARAM3">      0.00000000</i>
  </separator>
  <separator name="model GW" >
   <i type="int" name="MODEL_GW">     0</i>
   <i name="MODEL_EPS0">     12.47812500</i>
   <i name="MODEL_ALPHA">      1.00000000</i>
  </separator>
  <separator name="linear response parameters" >
   <i type="logical" name="LEPSILON"> F  </i>
   <i type="logical" name="LRPA"> F  </i>
   <i type="logical" name="LNABLA"> F  </i>
   <i type="logical" name="LVEL"> F  </i>
   <i type="int" name="KINTER">     0</i>
   <i name="CSHIFT">      0.10000000</i>
   <i name="OMEGAMAX">     -1.00000000</i>
   <i name="DEG_THRESHOLD">      0.00200000</i>
  </separator>
  <separator name="orbital magnetization" >
   <i type="logical" name="NUCIND"> F  </i>
   <v name="MAGPOS">      0.00000000      0.00000000      0.00000000</v>
   <i type="logical" name="LNICSALL"> T  </i>
   <i type="logical" name="ORBITALMAG"> F  </i>
   <i type="logical" name="LMAGBLOCH"> F  </i>
   <i type="logical" name="LCHIMAG"> F  </i>
   <i type="logical" name="LGAUGE"> T  </i>
   <i type="int" name="MAGATOM">     0</i>
   <v name="MAGDIPOL">      0.00000000      0.00000000      0.00000000</v>
   <v name="AVECCONST">      0.00000000      0.00000000      0.00000000</v>
  </separator>
  <separator name="response functions" >
   <i type="logical" name="LADDER"> F  </i>
   <i type="logical" name="LFXC"> F  </i>
   <i type="logical" name="LHARTREE"> T  </i>
   <i type="int" name="IBSE">     0</i>
   <i type="logical" name="LTCTE"> F  </i>
   <i type="logical" name="LTETE"> F  </i>
   <i type="logical" name="LTRIPLET"> F  </i>
   <i type="logical" name="LFXCEPS"> F  </i>
   <i type="logical" name="LFXHEG"> F  </i>
   <i type="logical" name="L2ORDER"> F  </i>
   <i type="logical" name="LUSEW"> F  </i>
   <i name="ENCUTGW">     -2.00000000</i>
   <i name="ENCUTGWSOFT">     -2.00000000</i>
   <i name="ENCUTLF">     -1.00000000</i>
   <i type="int" name="LMAXMP2">    -1</i>
   <i name="SCISSOR">      0.00000000</i>
   <i type="int" name="NOMEGA">     0</i>
   <i type="int" name="NOMEGAR">     0</i>
   <i type="int" name="NBANDSGW">    -1</i>
   <i type="int" name="NBANDSO">    -1</i>
   <i type="int" name="NBANDSV">    -1</i>
   <i type="int" name="NELM">     1</i>
   <i type="int" name="DIM">     3</i>
   <i type="int" name="ANTIRES">     0</i>
   <i name="OMEGAMAX">    -30.00000000</i>
   <i name="OMEGAMIN">    -30.00000000</i>
   <i name="OMEGATL">   -200.00000000</i>
   <i type="int" name="OMEGAGRID">     0</i>
   <i name="CSHIFT">     -0.10000000</i>
   <i type="logical" name="SELFENERGY"> F  </i>
   <i type="logical" name="LSPECTRAL"> F  </i>
   <i type="logical" name="ODDONLYGW"> F  </i>
   <i type="logical" name="EVENONLYGW"> F  </i>
   <i type="int" name="NKREDLFX">     1</i>
   <i type="int" name="NKREDLFY">     1</i>
   <i type="int" name="NKREDLFZ">     1</i>
   <i type="int" name="MAXMEM">  1800</i>
   <i type="int" name="TELESCOPE">     0</i>
   <i type="int" name="TAUPAR">     1</i>
  </separator>
  <separator name="External order field" >
   <i name="OFIELD_KAPPA">      0.00000000</i>
   <v name="OFIELD_K">      0.00000000      0.00000000      0.00000000</v>
   <i name="OFIELD_Q6_NEAR">      0.00000000</i>
   <i name="OFIELD_Q6_FAR">      0.00000000</i>
   <i name="OFIELD_A">      0.00000000</i>
  </separator>
 </parameters>
 <atominfo>
  <atoms>       2 </atoms>
  <types>       1 </types>
  <array name="atoms" >
   <dimension dim="1">ion</dimension>
   <field type="string">element</field>
   <field type="int">atomtype</field>
   <set>
    <rc><c>Si</c><c>   1</c></rc>
    <rc><c>Si</c><c>   1</c></rc>
   </set>
  </array>
  <array name="atomtypes" >
   <dimension dim="1">type</dimension>
   <field type="int">atomspertype</field>
   <field type="string">element</field>
   <field>mass</field>
   <field>valence</field>
   <field type="string">pseudopotential</field>
   <set>
    <rc><c>   2</c><c>Si</c><c>     28.08500000</c><c>      4.00000000</c><c> PAW Si 02Apr1999                       </c></rc>
   </set>
  </array>
 </atominfo>
 <structure name="initialpos" >
  <crystal>
   <varray name="basis" >
    <v>       0.00000000       2.75000000       2.75000000 </v>
    <v>       2.75000000       0.00000000       2.75000000 </v>
    <v>       2.75000000       2.75000000       0.00000000 </v>
   </varray>
   <i name="volume">     41.59375000 </i>
   <varray name="rec_basis" >
    <v>      -0.18181818       0.18181818       0.18181818 </v>
    <v>       0.18181818      -0.18181818       0.18181818 </v>
    <v>       0.18181818       0.18181818      -0.18181818 </v>
   </varray>
  </crystal>
  <varray name="positions" >
   <v>       0.87500000       0.87500000       0.87500000 </v>
   <v>       0.12500000       0.12500000       0.12500000 </v>
  </varray>
 </structure>
 <calculation>
  <scstep>
   <time name="dav">    0.25    0.25</time>
   <time name="total">    0.26    0.26</time>
   <energy>
    <i name="alphaZ">      2.27971458 </i>
    <i name="ewald">   -225.65453461 </i>
    <i name="hartreedc">    -11.66659557 </i>
    <i name="XCdc">    -18.74256651 </i>
    <i name="pawpsdc">     67.11795164 </i>
    <i name="pawaedc">    -32.28261218 </i>
    <i name="eentropy">     -0.00061132 </i>
    <i name="bandstr">      9.20831768 </i>
    <i name="atom">    206.85524113 </i>
    <i name="e_fr_energy">     -2.88569514 </i>
    <i name="e_wo_entrp">     -2.88508382 </i>
    <i name="e_0_energy">     -2.88538948 </i>
   </energy>
  </scstep>
  <scstep>
   <time name="dav">    0.37    0.37</time>
   <time name="total">    0.38    0.38</time>
   <energy>
    <i name="e_fr_energy">    -12.00185643 </i>
    <i name="e_wo_entrp">    -12.00185643 </i>
    <i name="e_0_energy">    -12.00185643 </i>
   </energy>
  </scstep>
  <scstep>
   <time name="dav">    0.32    0.32</time>
   <time name="total">    0.32    0.33</time>
   <energy>
    <i name="e_fr_energy">    -12.09646297 </i>
    <i name="e_wo_entrp">    -12.09646297 </i>
    <i name="e_0_energy">    -12.09646297 </i>
   </energy>
  </scstep>
  <scstep>
   <time name="dav">    0.35    0.35</time>
   <time name="total">    0.35    0.36</time>
   <energy>
    <i name="e_fr_energy">    -12.09668653 </i>
    <i name="e_wo_entrp">    -12.09668653 </i>
    <i name="e_0_energy">    -12.09668653 </i>
   </energy>
  </scstep>
  <scstep>
   <time name="dav">    0.33    0.33</time>
   <time name="total">    0.35    0.35</time>
   <energy>
    <i name="e_fr_energy">    -12.09668667 </i>
    <i name="e_wo_entrp">    -12.09668667 </i>
    <i name="e_0_energy">    -12.09668667 </i>
   </energy>
  </scstep>
  <scstep>
   <time name="dav">    0.28    0.28</time>
   <time name="total">    0.31    0.32</time>
   <energy>
    <i name="e_fr_energy">    -11.93648903 </i>
    <i name="e_wo_entrp">    -11.93648903 </i>
    <i name="e_0_energy">    -11.93648903 </i>
   </energy>
  </scstep>
  <scstep>
   <time name="dav">    0.28    0.28</time>
   <time name="total">    0.31    0.31</time>
   <energy>
    <i name="e_fr_energy">    -11.86112319 </i>
    <i name="e_wo_entrp">    -11.86112299 </i>
    <i name="e_0_energy">    -11.86112309 </i>
   </energy>
  </scstep>
  <scstep>
   <time name="dav">    0.26    0.26</time>
   <time name="total">    0.29    0.30</time>
   <energy>
    <i name="e_fr_energy">    -11.86126483 </i>
    <i name="e_wo_entrp">    -11.86126472 </i>
    <i name="e_0_energy">    -11.86126478 </i>
   </energy>
  </scstep>
  <scstep>
   <time name="dav">    0.30    0.30</time>
   <time name="total">    0.31    0.31</time>
   <energy>
    <i name="alphaZ">      2.27971458 </i>
    <i name="ewald">   -225.65453461 </i>
    <i name="hartreedc">    -15.27990907 </i>
    <i name="XCdc">    -18.11802489 </i>
    <i name="pawpsdc">     74.82666928 </i>
    <i name="pawaedc">    -40.19500546 </i>
    <i name="eentropy">     -0.00000013 </i>
    <i name="bandstr">      3.42461527 </i>
    <i name="atom">    206.85524113 </i>
    <i name="e_fr_energy">    -11.86123390 </i>
    <i name="e_wo_entrp">    -11.86123377 </i>
    <i name="e_0_energy">    -11.86123384 </i>
   </energy>
  </scstep>
  <structure>
   <crystal>
    <varray name="basis" >
     <v>       0.00000000       2.75000000       2.75000000 </v>
     <v>       2.75000000       0.00000000       2.75000000 </v>
     <v>       2.75000000       2.75000000       0.00000000 </v>
    </varray>
    <i name="volume">     41.59375000 </i>
    <varray name="rec_basis" >
     <v>      -0.18181818       0.18181818       0.18181818 </v>
     <v>       0.18181818      -0.18181818       0.18181818 </v>
     <v>       0.18181818       0.18181818      -0.18181818 </v>
    </varray>
   </crystal>
   <varray name="positions" >
    <v>       0.87500000       0.87500000       0.87500000 </v>
    <v>       0.12500000       0.12500000       0.12500000 </v>
   </varray>
  </structure>
  <varray name="forces" >
   <v>      -0.00000000      -0.00000000      -0.00000000 </v>
   <v>       0.00000000       0.00000000       0.00000000 </v>
  </varray>
  <varray name="stress" >
   <v>     -47.89928441       0.00000000      -0.00000000 </v>
   <v>       0.00000000     -47.89928441       0.00000000 </v>
   <v>      -0.00000000      -0.00000000     -47.89928441 </v>
  </varray>
  <energy>
   <i name="e_fr_energy">    -11.86123390 </i>
   <i name="e_wo_entrp">    -11.86123384 </i>
   <i name="e_0_energy">     -0.00000013 </i>
  </energy>
  <time name="totalsc">    3.14    3.19</time>
 </calculation>
 <calculation>
  <scstep>
   <time name="dav">    0.28    0.28</time>
   <time name="total">    0.31    0.31</time>
   <energy>
    <i name="alphaZ">      2.49780455 </i>
    <i name="ewald">   -232.63232267 </i>
    <i name="hartreedc">    -15.75728703 </i>
    <i name="XCdc">    -17.76461664 </i>
    <i name="pawpsdc">     74.82666739 </i>
    <i name="pawaedc">    -40.19563067 </i>
    <i name="eentropy">     -0.00010911 </i>
    <i name="bandstr">     10.23302403 </i>
    <i name="atom">    206.85524113 </i>
    <i name="e_fr_energy">    -11.93722902 </i>
    <i name="e_wo_entrp">    -11.93711991 </i>
    <i name="e_0_energy">    -11.93717446 </i>
   </energy>
  </scstep>
  <scstep>
   <time name="dav">    0.31    0.31</time>
   <time name="total">    0.33    0.35</time>
   <energy>
    <i name="e_fr_energy">    -11.89877131 </i>
    <i name="e_wo_entrp">    -11.89873622 </i>
    <i name="e_0_energy">    -11.89875377 </i>
   </energy>
  </scstep>
  <scstep>
   <time name="dav">    0.28    0.28</time>
   <time name="total">    0.30    0.31</time>
   <energy>
    <i name="e_fr_energy">    -11.88129755 </i>
    <i name="e_wo_entrp">    -11.88129123 </i>
    <i name="e_0_energy">    -11.88129439 </i>
   </energy>
  </scstep>
  <scstep>
   <time name="dav">    0.33    0.34</time>
   <time name="total">    0.36    0.37</time>
   <energy>
    <i name="e_fr_energy">    -11.88111803 </i>
    <i name="e_wo_entrp">    -11.88111118 </i>
    <i name="e_0_energy">    -11.88111461 </i>
   </energy>
  </scstep>
  <scstep>
   <time name="dav">    0.16    0.16</time>
   <time name="total">    0.17    0.18</time>
   <energy>
    <i name="alphaZ">      2.49780455 </i>
    <i name="ewald">   -232.63232267 </i>
    <i name="hartreedc">    -14.22605729 </i>
    <i name="XCdc">    -17.75431620 </i>
    <i name="pawpsdc">     77.79012778 </i>
    <i name="pawaedc">    -43.23839977 </i>
    <i name="eentropy">     -0.00000693 </i>
    <i name="bandstr">      8.82681510 </i>
    <i name="atom">    206.85524113 </i>
    <i name="e_fr_energy">    -11.88111431 </i>
    <i name="e_wo_entrp">    -11.88110738 </i>
    <i name="e_0_energy">    -11.88111085 </i>
   </energy>
  </scstep>
  <structure>
   <crystal>
    <varray name="basis" >
     <v>      -0.00000000       2.66751397       2.66751397 </v>
     <v>       2.66751397      -0.00000000       2.66751397 </v>
     <v>       2.66751397       2.66751397      -0.00000000 </v>
    </varray>
    <i name="volume">     37.96208895 </i>
    <varray name="rec_basis" >
     <v>      -0.18744044       0.18744044       0.18744044 </v>
     <v>       0.18744044      -0.18744044       0.18744044 </v>
     <v>       0.18744044       0.18744044      -0.18744044 </v>
    </varray>
   </crystal>
   <varray name="positions" >
    <v>       0.87500000       0.87500000       0.87500000 </v>
    <v>       0.12500000       0.12500000       0.12500000 </v>
   </varray>
  </structure>
  <varray name="forces" >
   <v>      -0.00000000       0.00000000       0.00000000 </v>
   <v>       0.00000000      -0.00000000      -0.00000000 </v>
  </varray>
  <varray name="stress" >
   <v>      37.42929272       0.00000000      -0.00000000 </v>
   <v>       0.00000000      37.42929272       0.00000000 </v>
   <v>       0.00000000       0.00000000      37.42929272 </v>
  </varray>
  <energy>
   <i name="e_fr_energy">    -11.88111431 </i>
   <i name="e_wo_entrp">    -11.88111085 </i>
   <i name="e_0_energy">     -0.00000693 </i>
  </energy>
  <time name="totalsc">    1.71    1.76</time>
 </calculation>
 <calculation>
  <scstep>
   <time name="dav">    0.29    0.29</time>
   <time name="total">    0.31    0.32</time>
   <energy>
    <i name="alphaZ">      2.41005741 </i>
    <i name="ewald">   -229.87568469 </i>
    <i name="hartreedc">    -14.05671449 </i>
    <i name="XCdc">    -17.89547299 </i>
    <i name="pawpsdc">     77.75380278 </i>
    <i name="pawaedc">    -43.20133893 </i>
    <i name="eentropy">     -0.00000029 </i>
    <i name="bandstr">      6.10504385 </i>
    <i name="atom">    206.85524113 </i>
    <i name="e_fr_energy">    -11.90506622 </i>
    <i name="e_wo_entrp">    -11.90506593 </i>
    <i name="e_0_energy">    -11.90506607 </i>
   </energy>
  </scstep>
  <scstep>
   <time name="dav">    0.30    0.30</time>
   <time name="total">    0.33    0.33</time>
   <energy>
    <i name="e_fr_energy">    -11.89936883 </i>
    <i name="e_wo_entrp">    -11.89936816 </i>
    <i name="e_0_energy">    -11.89936849 </i>
   </energy>
  </scstep>
  <scstep>
   <time name="dav">    0.28    0.28</time>
   <time name="total">    0.31    0.31</time>
   <energy>
    <i name="e_fr_energy">    -11.89675244 </i>
    <i name="e_wo_entrp">    -11.89675079 </i>
    <i name="e_0_energy">    -11.89675161 </i>
   </energy>
  </scstep>
  <scstep>
   <time name="dav">    0.20    0.20</time>
   <time name="total">    0.21    0.22</time>
   <energy>
    <i name="alphaZ">      2.41005741 </i>
    <i name="ewald">   -229.87568469 </i>
    <i name="hartreedc">    -14.63440310 </i>
    <i name="XCdc">    -17.89735907 </i>
    <i name="pawpsdc">     76.56367642 </i>
    <i name="pawaedc">    -41.98004169 </i>
    <i name="eentropy">     -0.00000158 </i>
    <i name="bandstr">      6.66178602 </i>
    <i name="atom">    206.85524113 </i>
    <i name="e_fr_energy">    -11.89672915 </i>
    <i name="e_wo_entrp">    -11.89672757 </i>
    <i name="e_0_energy">    -11.89672836 </i>
   </energy>
  </scstep>
  <structure>
   <crystal>
    <varray name="basis" >
     <v>      -0.00000000       2.69950243       2.69950243 </v>
     <v>       2.69950243      -0.00000000       2.69950243 </v>
     <v>       2.69950243       2.69950243      -0.00000000 </v>
    </varray>
    <i name="volume">     39.34424044 </i>
    <varray name="rec_basis" >
     <v>      -0.18521932       0.18521932       0.18521932 </v>
     <v>       0.18521932      -0.18521932       0.18521932 </v>
     <v>       0.18521932       0.18521932      -0.18521932 </v>
    </varray>
   </crystal>
   <varray name="positions" >
    <v>       0.87500000       0.87500000       0.87500000 </v>
    <v>       0.12500000       0.12500000       0.12500000 </v>
   </varray>
  </structure>
  <varray name="forces" >
   <v>       0.00000000       0.00000000       0.00000000 </v>
   <v>      -0.00000000      -0.00000000      -0.00000000 </v>
  </varray>
  <varray name="stress" >
   <v>       0.04321421       0.00000000       0.00000000 </v>
   <v>       0.00000000       0.04321421       0.00000000 </v>
   <v>      -0.00000000       0.00000000       0.04321421 </v>
  </varray>
  <energy>
   <i name="e_fr_energy">    -11.89672915 </i>
   <i name="e_wo_entrp">    -11.89672836 </i>
   <i name="e_0_energy">     -0.00000158 </i>
  </energy>
  <time name="totalsc">    1.37    2.83</time>
  <eigenvalues>
   <array>
    <dimension dim="1">band</dimension>
    <dimension dim="2">kpoint</dimension>
    <dimension dim="3">spin</dimension>
    <field>eigene</field>
    <field>occ</field>
    <set>
     <set comment="spin 1">
      <set comment="kpoint 1">
       <r>   -6.1278    1.0000 </r>
       <r>    5.9635    0.9993 </r>
       <r>    5.9635    0.9993 </r>
       <r>    5.9635    0.9993 </r>
       <r>    8.4969    0.0000 </r>
       <r>    8.4969    0.0000 </r>
       <r>    8.4969    0.0000 </r>
       <r>    9.3619    0.0000 </r>
      </set>
      <set comment="kpoint 2">
       <r>   -6.0178    1.0000 </r>
       <r>    4.9624    1.0000 </r>
       <r>    5.7921    1.0000 </r>
       <r>    5.7921    1.0000 </r>
       <r>    8.5309    0.0000 </r>
       <r>    8.7501    0.0000 </r>
       <r>    8.7501    0.0000 </r>
       <r>   10.1329    0.0000 </r>
      </set>
      <set comment="kpoint 3">
       <r>   -5.6921    1.0000 </r>
       <r>    3.2578    1.0000 </r>
       <r>    5.4426    1.0000 </r>
       <r>    5.4426    1.0000 </r>
       <r>    8.2211    0.0000 </r>
       <r>    9.2302    0.0000 </r>
       <r>    9.2302    0.0000 </r>
       <r>   11.6982    0.0000 </r>
      </set>
      <set comment="kpoint 4">
       <r>   -5.1667    1.0000 </r>
       <r>    1.5716    1.0000 </r>
       <r>    5.1137    1.0000 </r>
       <r>    5.1137    1.0000 </r>
       <r>    7.8736    0.0000 </r>
       <r>    9.4710    0.0000 </r>
       <r>    9.4710    0.0000 </r>
       <r>   13.3289    0.0000 </r>
      </set>
      <set comment="kpoint 5">
       <r>   -4.4917    1.0000 </r>
       <r>    0.0880    1.0000 </r>
       <r>    4.8798    1.0000 </r>
       <r>    4.8798    1.0000 </r>
       <r>    7.6112    0.0000 </r>
       <r>    9.3961    0.0000 </r>
       <r>    9.3961    0.0000 </r>
       <r>   13.6966    0.0000 </r>
      </set>
      <set comment="kpoint 6">
       <r>   -3.8614    1.0000 </r>
       <r>   -0.9535    1.0000 </r>
       <r>    4.7609    1.0000 </r>
       <r>    4.7609    1.0000 </r>
       <r>    7.4739    0.0000 </r>
       <r>    9.2789    0.0000 </r>
       <r>    9.2789    0.0000 </r>
       <r>   13.5286    0.0000 </r>
      </set>
      <set comment="kpoint 7">
       <r>   -5.9809    1.0000 </r>
       <r>    5.1619    1.0000 </r>
       <r>    5.4537    1.0000 </r>
       <r>    5.4537    1.0000 </r>
       <r>    8.1560    0.0000 </r>
       <r>    9.1862    0.0000 </r>
       <r>    9.1862    0.0000 </r>
       <r>   10.0842    0.0000 </r>
      </set>
      <set comment="kpoint 8">
       <r>   -5.7265    1.0000 </r>
       <r>    3.7737    1.0000 </r>
       <r>    5.0464    1.0000 </r>
       <r>    5.2409    1.0000 </r>
       <r>    8.1894    0.0000 </r>
       <r>    9.2648    0.0000 </r>
       <r>    9.7878    0.0000 </r>
       <r>   10.9308    0.0000 </r>
      </set>
      <set comment="kpoint 9">
       <r>   -5.2652    1.0000 </r>
       <r>    2.1237    1.0000 </r>
       <r>    4.7223    1.0000 </r>
       <r>    4.8594    1.0000 </r>
       <r>    8.3301    0.0000 </r>
       <r>    9.2444    0.0000 </r>
       <r>   10.1377    0.0000 </r>
       <r>   11.2778    0.0000 </r>
      </set>
      <set comment="kpoint 10">
       <r>   -4.6305    1.0000 </r>
       <r>    0.5869    1.0000 </r>
       <r>    4.4698    1.0000 </r>
       <r>    4.5344    1.0000 </r>
       <r>    8.1872    0.0000 </r>
       <r>    9.2478    0.0000 </r>
       <r>   10.0517    0.0000 </r>
       <r>   12.0592    0.0000 </r>
      </set>
      <set comment="kpoint 11">
       <r>   -3.9419    1.0000 </r>
       <r>   -0.6343    1.0000 </r>
       <r>    4.1656    1.0000 </r>
       <r>    4.4965    1.0000 </r>
       <r>    8.0525    0.0000 </r>
       <r>    9.1869    0.0000 </r>
       <r>    9.8012    0.0000 </r>
       <r>   13.2921    0.0000 </r>
      </set>
      <set comment="kpoint 12">
       <r>   -3.6610    1.0000 </r>
       <r>   -1.0492    1.0000 </r>
       <r>    3.9823    1.0000 </r>
       <r>    4.6018    1.0000 </r>
       <r>    8.0296    0.0000 </r>
       <r>    9.2363    0.0000 </r>
       <r>    9.6066    0.0000 </r>
       <r>   13.9017    0.0000 </r>
      </set>
      <set comment="kpoint 13">
       <r>   -4.1625    1.0000 </r>
       <r>   -0.2779    1.0000 </r>
       <r>    3.9426    1.0000 </r>
       <r>    4.8354    1.0000 </r>
       <r>    8.1383    0.0000 </r>
       <r>    9.4317    0.0000 </r>
       <r>    9.5294    0.0000 </r>
       <r>   13.6596    0.0000 </r>
      </set>
      <set comment="kpoint 14">
       <r>   -4.8587    1.0000 </r>
       <r>    1.0795    1.0000 </r>
       <r>    4.0620    1.0000 </r>
       <r>    5.1669    1.0000 </r>
       <r>    8.3608    0.0000 </r>
       <r>    9.4738    0.0000 </r>
       <r>    9.6623    0.0000 </r>
       <r>   12.6593    0.0000 </r>
      </set>
      <set comment="kpoint 15">
       <r>   -5.4417    1.0000 </r>
       <r>    2.6589    1.0000 </r>
       <r>    4.3595    1.0000 </r>
       <r>    5.5392    1.0000 </r>
       <r>    8.6612    0.0000 </r>
       <r>    9.2011    0.0000 </r>
       <r>    9.5600    0.0000 </r>
       <r>   11.8040    0.0000 </r>
      </set>
      <set comment="kpoint 16">
       <r>   -5.8357    1.0000 </r>
       <r>    4.1563    1.0000 </r>
       <r>    4.9341    1.0000 </r>
       <r>    5.8201    1.0000 </r>
       <r>    8.7969    0.0000 </r>
       <r>    8.9123    0.0000 </r>
       <r>    8.9603    0.0000 </r>
       <r>   10.9871    0.0000 </r>
      </set>
      <set comment="kpoint 17">
       <r>   -5.5434    1.0000 </r>
       <r>    3.6551    1.0000 </r>
       <r>    4.6008    1.0000 </r>
       <r>    4.6008    1.0000 </r>
       <r>    7.4734    0.0000 </r>
       <r>   10.0532    0.0000 </r>
       <r>   10.5586    0.0000 </r>
       <r>   10.5586    0.0000 </r>
      </set>
      <set comment="kpoint 18">
       <r>   -5.1497    1.0000 </r>
       <r>    2.4725    1.0000 </r>
       <r>    4.1755    1.0000 </r>
       <r>    4.2514    1.0000 </r>
       <r>    7.5268    0.0000 </r>
       <r>    9.6052    0.0000 </r>
       <r>   10.8377    0.0000 </r>
       <r>   11.1462    0.0000 </r>
      </set>
      <set comment="kpoint 19">
       <r>   -4.5677    1.0000 </r>
       <r>    1.0685    1.0000 </r>
       <r>    3.6309    1.0000 </r>
       <r>    4.0528    1.0000 </r>
       <r>    7.7621    0.0000 </r>
       <r>    9.9752    0.0000 </r>
       <r>   10.6324    0.0000 </r>
       <r>   11.2141    0.0000 </r>
      </set>
      <set comment="kpoint 20">
       <r>   -3.8708    1.0000 </r>
       <r>   -0.2000    1.0000 </r>
       <r>    3.1442    1.0000 </r>
       <r>    4.0220    1.0000 </r>
       <r>    7.7987    0.0000 </r>
       <r>   10.4011    0.0000 </r>
       <r>   10.9435    0.0000 </r>
       <r>   11.2108    0.0000 </r>
      </set>
      <set comment="kpoint 21">
       <r>   -3.3704    1.0000 </r>
       <r>   -0.9339    1.0000 </r>
       <r>    2.7995    1.0000 </r>
       <r>    4.1575    1.0000 </r>
       <r>    7.9038    0.0000 </r>
       <r>   10.2607    0.0000 </r>
       <r>   10.6393    0.0000 </r>
       <r>   12.8592    0.0000 </r>
      </set>
      <set comment="kpoint 22">
       <r>   -3.6663    1.0000 </r>
       <r>   -0.5084    1.0000 </r>
       <r>    2.6386    1.0000 </r>
       <r>    4.4437    1.0000 </r>
       <r>    8.1734    0.0000 </r>
       <r>   10.2421    0.0000 </r>
       <r>   10.4117    0.0000 </r>
       <r>   13.6956    0.0000 </r>
      </set>
      <set comment="kpoint 23">
       <r>   -4.3566    1.0000 </r>
       <r>    0.6399    1.0000 </r>
       <r>    2.7129    1.0000 </r>
       <r>    4.8413    1.0000 </r>
       <r>    8.5689    0.0000 </r>
       <r>   10.1764    0.0000 </r>
       <r>   10.2864    0.0000 </r>
       <r>   12.2989    0.0000 </r>
      </set>
      <set comment="kpoint 24">
       <r>   -4.9858    1.0000 </r>
       <r>    1.8571    1.0000 </r>
       <r>    3.1997    1.0000 </r>
       <r>    5.2663    1.0000 </r>
       <r>    8.9315    0.0000 </r>
       <r>    9.6906    0.0000 </r>
       <r>    9.9774    0.0000 </r>
       <r>   11.6088    0.0000 </r>
      </set>
      <set comment="kpoint 25">
       <r>   -4.8234    1.0000 </r>
       <r>    2.0211    1.0000 </r>
       <r>    3.8659    1.0000 </r>
       <r>    3.8659    1.0000 </r>
       <r>    6.8561    0.0000 </r>
       <r>    8.6613    0.0000 </r>
       <r>   12.1430    0.0000 </r>
       <r>   12.1430    0.0000 </r>
      </set>
      <set comment="kpoint 26">
       <r>   -4.3005    1.0000 </r>
       <r>    1.0518    1.0000 </r>
       <r>    3.3076    1.0000 </r>
       <r>    3.6309    1.0000 </r>
       <r>    6.9917    0.0000 </r>
       <r>    8.3684    0.0000 </r>
       <r>   12.4406    0.0000 </r>
       <r>   12.6068    0.0000 </r>
      </set>
      <set comment="kpoint 27">
       <r>   -3.6268    1.0000 </r>
       <r>    0.0004    1.0000 </r>
       <r>    2.5549    1.0000 </r>
       <r>    3.5695    1.0000 </r>
       <r>    7.1837    0.0000 </r>
       <r>    9.1525    0.0000 </r>
       <r>   12.2768    0.0000 </r>
       <r>   12.4548    0.0000 </r>
      </set>
      <set comment="kpoint 28">
       <r>   -2.9934    1.0000 </r>
       <r>   -0.8267    1.0000 </r>
       <r>    1.9651    1.0000 </r>
       <r>    3.6850    1.0000 </r>
       <r>    7.3179    0.0000 </r>
       <r>   10.6511    0.0000 </r>
       <r>   12.1067    0.0000 </r>
       <r>   12.1143    0.0000 </r>
      </set>
      <set comment="kpoint 29">
       <r>   -3.0489    1.0000 </r>
       <r>   -0.7466    1.0000 </r>
       <r>    1.6687    1.0000 </r>
       <r>    3.9666    1.0000 </r>
       <r>    7.6204    0.0000 </r>
       <r>   11.7517    0.0000 </r>
       <r>   11.7595    0.0000 </r>
       <r>   12.6999    0.0000 </r>
      </set>
      <set comment="kpoint 30">
       <r>   -3.7014    1.0000 </r>
       <r>    0.0318    1.0000 </r>
       <r>    1.8296    1.0000 </r>
       <r>    4.3796    1.0000 </r>
       <r>    8.0895    0.0000 </r>
       <r>   11.1638    0.0000 </r>
       <r>   11.4890    0.0000 </r>
       <r>   12.3784    0.0000 </r>
      </set>
      <set comment="kpoint 31">
       <r>   -3.8368    1.0000 </r>
       <r>    0.3832    1.0000 </r>
       <r>    3.3501    1.0000 </r>
       <r>    3.3501    1.0000 </r>
       <r>    6.4812    0.0000 </r>
       <r>    7.4951    0.0000 </r>
       <r>   13.8174    0.0000 </r>
       <r>   13.8174    0.0000 </r>
      </set>
      <set comment="kpoint 32">
       <r>   -3.2032    1.0000 </r>
       <r>   -0.4431    1.0000 </r>
       <r>    2.7889    1.0000 </r>
       <r>    3.2438    1.0000 </r>
       <r>    6.6898    0.0000 </r>
       <r>    7.5245    0.0000 </r>
       <r>   14.1428    0.0000 </r>
       <r>   14.1543    0.0000 </r>
      </set>
      <set comment="kpoint 33">
       <r>   -2.5117    1.0000 </r>
       <r>   -1.1725    1.0000 </r>
       <r>    1.9747    1.0000 </r>
       <r>    3.3189    1.0000 </r>
       <r>    6.8553    0.0000 </r>
       <r>    8.7494    0.0000 </r>
       <r>   13.8476    0.0000 </r>
       <r>   14.0115    0.0000 </r>
      </set>
      <set comment="kpoint 34">
       <r>   -2.4369    1.0000 </r>
       <r>   -1.2118    1.0000 </r>
       <r>    1.4698    1.0000 </r>
       <r>    3.5691    1.0000 </r>
       <r>    7.1433    0.0000 </r>
       <r>   10.4987    0.0000 </r>
       <r>   13.1682    0.0000 </r>
       <r>   13.7063    0.0000 </r>
      </set>
      <set comment="kpoint 35">
       <r>   -2.6104    1.0000 </r>
       <r>   -1.1847    1.0000 </r>
       <r>    3.0875    1.0000 </r>
       <r>    3.0875    1.0000 </r>
       <r>    6.4306    0.0003 </r>
       <r>    6.7538    0.0000 </r>
       <r>   15.5374    0.0000 </r>
       <r>   15.5374    0.0000 </r>
      </set>
      <set comment="kpoint 36">
       <r>   -1.9504    1.0000 </r>
       <r>   -1.8404    1.0000 </r>
       <r>    2.6187    1.0000 </r>
       <r>    3.1133    1.0000 </r>
       <r>    6.6112    0.0000 </r>
       <r>    7.2178    0.0000 </r>
       <r>   15.4593    0.0000 </r>
       <r>   15.7059    0.0000 </r>
      </set>
      <set comment="kpoint 37">
       <r>   -5.4029    1.0000 </r>
       <r>    2.9152    1.0000 </r>
       <r>    4.0714    1.0000 </r>
       <r>    5.1255    1.0000 </r>
       <r>    8.2425    0.0000 </r>
       <r>    9.6011    0.0000 </r>
       <r>   10.3381    0.0000 </r>
       <r>   10.6895    0.0000 </r>
      </set>
      <set comment="kpoint 38">
       <r>   -4.8803    1.0000 </r>
       <r>    1.5700    1.0000 </r>
       <r>    3.5014    1.0000 </r>
       <r>    4.7970    1.0000 </r>
       <r>    8.5645    0.0000 </r>
       <r>    9.5295    0.0000 </r>
       <r>   10.6271    0.0000 </r>
       <r>   10.8356    0.0000 </r>
      </set>
      <set comment="kpoint 39">
       <r>   -4.2071    1.0000 </r>
       <r>    0.1953    1.0000 </r>
       <r>    3.2466    1.0000 </r>
       <r>    4.4429    1.0000 </r>
       <r>    8.6103    0.0000 </r>
       <r>    9.2707    0.0000 </r>
       <r>   10.7592    0.0000 </r>
       <r>   11.6712    0.0000 </r>
      </set>
      <set comment="kpoint 40">
       <r>   -3.5728    1.0000 </r>
       <r>   -0.8146    1.0000 </r>
       <r>    3.1494    1.0000 </r>
       <r>    4.2255    1.0000 </r>
       <r>    8.6029    0.0000 </r>
       <r>    9.0311    0.0000 </r>
       <r>   10.6861    0.0000 </r>
       <r>   13.1599    0.0000 </r>
      </set>
      <set comment="kpoint 41">
       <r>   -4.6925    1.0000 </r>
       <r>    1.6246    1.0000 </r>
       <r>    3.3400    1.0000 </r>
       <r>    4.0873    1.0000 </r>
       <r>    7.6558    0.0000 </r>
       <r>    9.1826    0.0000 </r>
       <r>   10.9576    0.0000 </r>
       <r>   12.0176    0.0000 </r>
      </set>
      <set comment="kpoint 42">
       <r>   -4.0621    1.0000 </r>
       <r>    0.5229    1.0000 </r>
       <r>    2.7518    1.0000 </r>
       <r>    3.7611    1.0000 </r>
       <r>    8.0168    0.0000 </r>
       <r>    9.6056    0.0000 </r>
       <r>   10.6359    0.0000 </r>
       <r>   12.4098    0.0000 </r>
      </set>
      <set comment="kpoint 43">
       <r>   -3.3708    1.0000 </r>
       <r>   -0.5161    1.0000 </r>
       <r>    2.3612    1.0000 </r>
       <r>    3.5997    1.0000 </r>
       <r>    8.1469    0.0000 </r>
       <r>   10.1927    0.0000 </r>
       <r>   11.0317    0.0000 </r>
       <r>   12.3624    0.0000 </r>
      </set>
      <set comment="kpoint 44">
       <r>   -3.0931    1.0000 </r>
       <r>   -0.8793    1.0000 </r>
       <r>    2.1245    1.0000 </r>
       <r>    3.6926    1.0000 </r>
       <r>    8.3677    0.0000 </r>
       <r>    9.9274    0.0000 </r>
       <r>   12.2371    0.0000 </r>
       <r>   12.7251    0.0000 </r>
      </set>
      <set comment="kpoint 45">
       <r>   -3.6165    1.0000 </r>
       <r>   -0.1658    1.0000 </r>
       <r>    2.1062    1.0000 </r>
       <r>    3.9976    1.0000 </r>
       <r>    8.7474    0.0000 </r>
       <r>    9.7330    0.0000 </r>
       <r>   11.4930    0.0000 </r>
       <r>   12.1553    0.0000 </r>
      </set>
      <set comment="kpoint 46">
       <r>   -4.3084    1.0000 </r>
       <r>    0.8388    1.0000 </r>
       <r>    2.4866    1.0000 </r>
       <r>    4.4265    1.0000 </r>
       <r>    9.2184    0.0000 </r>
       <r>    9.3186    0.0000 </r>
       <r>   10.5669    0.0000 </r>
       <r>   11.7068    0.0000 </r>
      </set>
      <set comment="kpoint 47">
       <r>   -3.7241    1.0000 </r>
       <r>    0.2450    1.0000 </r>
       <r>    2.8548    1.0000 </r>
       <r>    3.2591    1.0000 </r>
       <r>    7.2812    0.0000 </r>
       <r>    8.1209    0.0000 </r>
       <r>   12.3521    0.0000 </r>
       <r>   13.7861    0.0000 </r>
      </set>
      <set comment="kpoint 48">
       <r>   -3.0280    1.0000 </r>
       <r>   -0.5912    1.0000 </r>
       <r>    2.1845    1.0000 </r>
       <r>    3.0737    1.0000 </r>
       <r>    7.6227    0.0000 </r>
       <r>    8.9687    0.0000 </r>
       <r>   11.9858    0.0000 </r>
       <r>   14.1542    0.0000 </r>
      </set>
      <set comment="kpoint 49">
       <r>   -2.5415    1.0000 </r>
       <r>   -1.1059    1.0000 </r>
       <r>    1.6425    1.0000 </r>
       <r>    3.1940    1.0000 </r>
       <r>    7.8411    0.0000 </r>
       <r>   10.5584    0.0000 </r>
       <r>   11.6815    0.0000 </r>
       <r>   13.2946    0.0000 </r>
      </set>
      <set comment="kpoint 50">
       <r>   -2.9370    1.0000 </r>
       <r>   -0.6984    1.0000 </r>
       <r>    1.5340    1.0000 </r>
       <r>    3.5267    1.0000 </r>
       <r>    8.2266    0.0000 </r>
       <r>   11.0094    0.0000 </r>
       <r>   11.7636    0.0000 </r>
       <r>   12.6580    0.0000 </r>
      </set>
      <set comment="kpoint 51">
       <r>   -2.5334    1.0000 </r>
       <r>   -1.1792    1.0000 </r>
       <r>    2.6584    1.0000 </r>
       <r>    2.7833    1.0000 </r>
       <r>    7.1982    0.0000 </r>
       <r>    7.4621    0.0000 </r>
       <r>   13.8932    0.0000 </r>
       <r>   15.3449    0.0000 </r>
      </set>
      <set comment="kpoint 52">
       <r>   -2.0108    1.0000 </r>
       <r>   -1.6359    1.0000 </r>
       <r>    1.9646    1.0000 </r>
       <r>    2.8578    1.0000 </r>
       <r>    7.4812    0.0000 </r>
       <r>    8.7618    0.0000 </r>
       <r>   13.4284    0.0000 </r>
       <r>   13.6589    0.0000 </r>
      </set>
      <set comment="kpoint 53">
       <r>   -3.4041    1.0000 </r>
       <r>   -0.1588    1.0000 </r>
       <r>    2.0661    1.0000 </r>
       <r>    3.2742    1.0000 </r>
       <r>    8.9802    0.0000 </r>
       <r>    9.5869    0.0000 </r>
       <r>   10.2622    0.0000 </r>
       <r>   13.6768    0.0000 </r>
      </set>
      <set comment="kpoint 54">
       <r>   -2.7516    1.0000 </r>
       <r>   -0.8751    1.0000 </r>
       <r>    1.7778    1.0000 </r>
       <r>    2.9414    1.0000 </r>
       <r>    9.3306    0.0000 </r>
       <r>    9.7313    0.0000 </r>
       <r>   11.0205    0.0000 </r>
       <r>   12.9188    0.0000 </r>
      </set>
      <set comment="kpoint 55">
       <r>   -2.3379    1.0000 </r>
       <r>   -1.2185    1.0000 </r>
       <r>    2.0123    1.0000 </r>
       <r>    2.4043    1.0000 </r>
       <r>    8.8838    0.0000 </r>
       <r>    9.0823    0.0000 </r>
       <r>   11.5635    0.0000 </r>
       <r>   13.1669    0.0000 </r>
      </set>
      <set comment="kpoint 56">
       <r>   -2.1292    1.0000 </r>
       <r>   -1.3877    1.0000 </r>
       <r>    1.7186    1.0000 </r>
       <r>    2.4429    1.0000 </r>
       <r>    9.2323    0.0000 </r>
       <r>   10.5136    0.0000 </r>
       <r>   11.3255    0.0000 </r>
       <r>   11.3524    0.0000 </r>
      </set>
     </set>
    </set>
   </array>
  </eigenvalues>
  <separator name="orbital magnetization" >
   <v name="MAGDIPOLOUT">      0.00000000      0.00000000      0.00000000</v>
  </separator>
  <dos>
   <i name="efermi">      6.18962178 </i>
   <total>
    <array>
     <dimension dim="1">gridpoints</dimension>
     <dimension dim="2">spin</dimension>
     <field>energy</field>
     <field>total</field>
     <field>integrated</field>
     <set>
      <set comment="spin 1">
       <r>    -7.2195     0.0000     0.0000 </r>
       <r>    -7.1394     0.0000     0.0000 </r>
       <r>    -7.0594     0.0000     0.0000 </r>
       <r>    -6.9793     0.0000     0.0000 </r>
       <r>    -6.8993     0.0000     0.0000 </r>
       <r>    -6.8192     0.0000     0.0000 </r>
       <r>    -6.7391     0.0000     0.0000 </r>
       <r>    -6.6591     0.0000     0.0000 </r>
       <r>    -6.5790     0.0000     0.0000 </r>
       <r>    -6.4990     0.0000     0.0000 </r>
       <r>    -6.4189     0.0000     0.0000 </r>
       <r>    -6.3389     0.0000     0.0000 </r>
       <r>    -6.2588     0.0006     0.0001 </r>
       <r>    -6.1787     0.0058     0.0005 </r>
       <r>    -6.0987     0.0303     0.0029 </r>
       <r>    -6.0186     0.0898     0.0101 </r>
       <r>    -5.9386     0.1214     0.0198 </r>
       <r>    -5.8585     0.1266     0.0300 </r>
       <r>    -5.7785     0.2058     0.0465 </r>
       <r>    -5.6984     0.2869     0.0694 </r>
       <r>    -5.6183     0.2090     0.0861 </r>
       <r>    -5.5383     0.1382     0.0972 </r>
       <r>    -5.4582     0.2755     0.1193 </r>
       <r>    -5.3782     0.4085     0.1520 </r>
       <r>    -5.2981     0.3391     0.1791 </r>
       <r>    -5.2181     0.3282     0.2054 </r>
       <r>    -5.1380     0.3468     0.2332 </r>
       <r>    -5.0579     0.2470     0.2529 </r>
       <r>    -4.9779     0.2292     0.2713 </r>
       <r>    -4.8978     0.4949     0.3109 </r>
       <r>    -4.8178     0.6459     0.3626 </r>
       <r>    -4.7377     0.4304     0.3971 </r>
       <r>    -4.6577     0.4142     0.4302 </r>
       <r>    -4.5776     0.4799     0.4686 </r>
       <r>    -4.4975     0.3551     0.4971 </r>
       <r>    -4.4175     0.2624     0.5181 </r>
       <r>    -4.3374     0.4838     0.5568 </r>
       <r>    -4.2574     0.7528     0.6171 </r>
       <r>    -4.1773     0.8029     0.6814 </r>
       <r>    -4.0973     0.7039     0.7377 </r>
       <r>    -4.0172     0.5784     0.7840 </r>
       <r>    -3.9371     0.4845     0.8228 </r>
       <r>    -3.8571     0.4878     0.8619 </r>
       <r>    -3.7770     0.4819     0.9004 </r>
       <r>    -3.6970     0.7959     0.9642 </r>
       <r>    -3.6169     1.3177     1.0696 </r>
       <r>    -3.5369     1.1488     1.1616 </r>
       <r>    -3.4568     0.6414     1.2130 </r>
       <r>    -3.3768     0.7308     1.2715 </r>
       <r>    -3.2967     0.6943     1.3271 </r>
       <r>    -3.2166     0.3986     1.3590 </r>
       <r>    -3.1366     0.5161     1.4003 </r>
       <r>    -3.0565     0.9601     1.4771 </r>
       <r>    -2.9765     1.0877     1.5642 </r>
       <r>    -2.8964     0.6409     1.6155 </r>
       <r>    -2.8164     0.3234     1.6414 </r>
       <r>    -2.7363     0.3964     1.6732 </r>
       <r>    -2.6562     0.3906     1.7044 </r>
       <r>    -2.5762     0.5381     1.7475 </r>
       <r>    -2.4961     0.8417     1.8149 </r>
       <r>    -2.4161     0.6136     1.8640 </r>
       <r>    -2.3360     0.3298     1.8904 </r>
       <r>    -2.2560     0.2025     1.9066 </r>
       <r>    -2.1759     0.1545     1.9190 </r>
       <r>    -2.0958     0.2488     1.9389 </r>
       <r>    -2.0158     0.3171     1.9643 </r>
       <r>    -1.9357     0.3057     1.9888 </r>
       <r>    -1.8557     0.2075     2.0054 </r>
       <r>    -1.7756     0.1268     2.0155 </r>
       <r>    -1.6956     0.1165     2.0249 </r>
       <r>    -1.6155     0.1912     2.0402 </r>
       <r>    -1.5354     0.1473     2.0520 </r>
       <r>    -1.4554     0.1009     2.0600 </r>
       <r>    -1.3753     0.1933     2.0755 </r>
       <r>    -1.2953     0.2805     2.0980 </r>
       <r>    -1.2152     0.5981     2.1459 </r>
       <r>    -1.1352     0.9847     2.2247 </r>
       <r>    -1.0551     0.8981     2.2966 </r>
       <r>    -0.9750     0.7167     2.3540 </r>
       <r>    -0.8950     1.0980     2.4419 </r>
       <r>    -0.8149     1.4883     2.5610 </r>
       <r>    -0.7349     1.1580     2.6537 </r>
       <r>    -0.6548     0.8471     2.7215 </r>
       <r>    -0.5748     0.9564     2.7981 </r>
       <r>    -0.4947     1.0370     2.8811 </r>
       <r>    -0.4146     0.7108     2.9380 </r>
       <r>    -0.3346     0.3406     2.9653 </r>
       <r>    -0.2545     0.4324     2.9999 </r>
       <r>    -0.1745     0.7875     3.0630 </r>
       <r>    -0.0944     0.7444     3.1225 </r>
       <r>    -0.0144     0.4382     3.1576 </r>
       <r>     0.0657     0.3801     3.1881 </r>
       <r>     0.1457     0.4151     3.2213 </r>
       <r>     0.2258     0.5727     3.2671 </r>
       <r>     0.3059     0.4522     3.3033 </r>
       <r>     0.3859     0.1938     3.3188 </r>
       <r>     0.4660     0.2417     3.3382 </r>
       <r>     0.5460     0.5349     3.3810 </r>
       <r>     0.6261     0.6134     3.4301 </r>
       <r>     0.7061     0.3652     3.4594 </r>
       <r>     0.7862     0.1830     3.4740 </r>
       <r>     0.8663     0.2033     3.4903 </r>
       <r>     0.9463     0.1879     3.5053 </r>
       <r>     1.0264     0.3521     3.5335 </r>
       <r>     1.1064     0.5744     3.5795 </r>
       <r>     1.1865     0.3273     3.6057 </r>
       <r>     1.2665     0.0606     3.6106 </r>
       <r>     1.3466     0.0148     3.6118 </r>
       <r>     1.4267     0.1028     3.6200 </r>
       <r>     1.5067     0.4463     3.6557 </r>
       <r>     1.5868     1.0244     3.7377 </r>
       <r>     1.6668     1.3163     3.8431 </r>
       <r>     1.7469     1.1131     3.9322 </r>
       <r>     1.8269     0.8253     3.9983 </r>
       <r>     1.9070     0.6811     4.0528 </r>
       <r>     1.9871     0.9517     4.1290 </r>
       <r>     2.0671     1.3501     4.2371 </r>
       <r>     2.1472     1.5567     4.3617 </r>
       <r>     2.2272     1.1097     4.4506 </r>
       <r>     2.3073     0.5721     4.4964 </r>
       <r>     2.3873     0.7373     4.5554 </r>
       <r>     2.4674     0.9920     4.6348 </r>
       <r>     2.5475     0.9078     4.7075 </r>
       <r>     2.6275     0.9356     4.7824 </r>
       <r>     2.7076     1.2512     4.8826 </r>
       <r>     2.7876     1.4949     5.0022 </r>
       <r>     2.8677     1.4169     5.1157 </r>
       <r>     2.9477     1.1088     5.2044 </r>
       <r>     3.0278     0.8713     5.2742 </r>
       <r>     3.1079     1.1686     5.3677 </r>
       <r>     3.1879     1.7942     5.5114 </r>
       <r>     3.2680     2.1019     5.6796 </r>
       <r>     3.3480     1.6665     5.8131 </r>
       <r>     3.4281     0.8850     5.8839 </r>
       <r>     3.5081     0.8670     5.9533 </r>
       <r>     3.5882     1.4237     6.0673 </r>
       <r>     3.6682     1.6885     6.2025 </r>
       <r>     3.7483     1.4716     6.3203 </r>
       <r>     3.8284     0.9702     6.3979 </r>
       <r>     3.9084     0.7468     6.4577 </r>
       <r>     3.9885     1.2929     6.5612 </r>
       <r>     4.0685     1.7576     6.7019 </r>
       <r>     4.1486     1.6327     6.8327 </r>
       <r>     4.2286     1.3887     6.9438 </r>
       <r>     4.3087     0.9841     7.0226 </r>
       <r>     4.3888     0.9540     7.0990 </r>
       <r>     4.4688     1.3710     7.2087 </r>
       <r>     4.5489     1.2246     7.3068 </r>
       <r>     4.6289     0.7406     7.3661 </r>
       <r>     4.7090     0.5922     7.4135 </r>
       <r>     4.7890     0.9529     7.4898 </r>
       <r>     4.8691     1.2234     7.5877 </r>
       <r>     4.9492     0.8534     7.6560 </r>
       <r>     5.0292     0.5120     7.6970 </r>
       <r>     5.1093     0.6118     7.7460 </r>
       <r>     5.1893     0.7318     7.8046 </r>
       <r>     5.2694     0.5687     7.8501 </r>
       <r>     5.3494     0.3020     7.8743 </r>
       <r>     5.4295     0.2463     7.8940 </r>
       <r>     5.5096     0.3440     7.9215 </r>
       <r>     5.5896     0.2803     7.9440 </r>
       <r>     5.6697     0.1194     7.9535 </r>
       <r>     5.7497     0.1167     7.9629 </r>
       <r>     5.8298     0.2198     7.9805 </r>
       <r>     5.9098     0.1631     7.9935 </r>
       <r>     5.9899     0.0585     7.9982 </r>
       <r>     6.0700     0.0188     7.9997 </r>
       <r>     6.1500     0.0035     8.0000 </r>
       <r>     6.2301     0.0005     8.0000 </r>
       <r>     6.3101     0.0056     8.0005 </r>
       <r>     6.3902     0.0375     8.0035 </r>
       <r>     6.4702     0.0919     8.0108 </r>
       <r>     6.5503     0.1214     8.0205 </r>
       <r>     6.6303     0.1982     8.0364 </r>
       <r>     6.7104     0.2961     8.0601 </r>
       <r>     6.7905     0.2944     8.0837 </r>
       <r>     6.8705     0.3089     8.1084 </r>
       <r>     6.9506     0.2993     8.1324 </r>
       <r>     7.0306     0.2633     8.1535 </r>
       <r>     7.1107     0.2976     8.1773 </r>
       <r>     7.1907     0.5703     8.2229 </r>
       <r>     7.2708     0.7326     8.2816 </r>
       <r>     7.3509     0.5865     8.3285 </r>
       <r>     7.4309     0.5777     8.3748 </r>
       <r>     7.5110     0.9619     8.4518 </r>
       <r>     7.5910     1.1790     8.5462 </r>
       <r>     7.6711     1.0874     8.6332 </r>
       <r>     7.7511     0.8241     8.6992 </r>
       <r>     7.8312     0.8667     8.7686 </r>
       <r>     7.9113     0.8772     8.8388 </r>
       <r>     7.9913     0.8645     8.9080 </r>
       <r>     8.0714     1.2725     9.0099 </r>
       <r>     8.1514     1.7646     9.1512 </r>
       <r>     8.2315     1.7961     9.2950 </r>
       <r>     8.3115     1.3511     9.4031 </r>
       <r>     8.3916     1.1493     9.4951 </r>
       <r>     8.4717     0.8256     9.5612 </r>
       <r>     8.5517     1.0365     9.6442 </r>
       <r>     8.6318     1.6170     9.7737 </r>
       <r>     8.7118     1.5284     9.8960 </r>
       <r>     8.7919     1.3007    10.0002 </r>
       <r>     8.8719     0.9918    10.0796 </r>
       <r>     8.9520     1.1066    10.1681 </r>
       <r>     9.0321     1.3208    10.2739 </r>
       <r>     9.1121     1.2556    10.3744 </r>
       <r>     9.1922     1.8809    10.5250 </r>
       <r>     9.2722     2.7022    10.7413 </r>
       <r>     9.3523     2.1805    10.9159 </r>
       <r>     9.4323     1.3479    11.0238 </r>
       <r>     9.5124     1.4762    11.1420 </r>
       <r>     9.5925     2.0530    11.3063 </r>
       <r>     9.6725     2.0456    11.4701 </r>
       <r>     9.7526     1.6508    11.6022 </r>
       <r>     9.8326     1.1569    11.6949 </r>
       <r>     9.9127     0.7839    11.7576 </r>
       <r>     9.9927     0.8173    11.8230 </r>
       <r>    10.0728     0.8069    11.8876 </r>
       <r>    10.1528     0.9957    11.9674 </r>
       <r>    10.2329     1.3615    12.0764 </r>
       <r>    10.3130     1.3143    12.1816 </r>
       <r>    10.3930     0.9642    12.2588 </r>
       <r>    10.4731     0.8766    12.3289 </r>
       <r>    10.5531     1.3854    12.4398 </r>
       <r>    10.6332     2.2274    12.6182 </r>
       <r>    10.7132     2.2495    12.7983 </r>
       <r>    10.7933     1.5294    12.9207 </r>
       <r>    10.8734     1.1860    13.0156 </r>
       <r>    10.9534     1.3122    13.1207 </r>
       <r>    11.0335     1.5484    13.2446 </r>
       <r>    11.1135     1.1866    13.3396 </r>
       <r>    11.1936     0.8665    13.4090 </r>
       <r>    11.2736     0.8567    13.4776 </r>
       <r>    11.3537     0.7416    13.5370 </r>
       <r>    11.4338     0.5900    13.5842 </r>
       <r>    11.5138     0.6868    13.6392 </r>
       <r>    11.5939     0.8631    13.7083 </r>
       <r>    11.6739     1.2731    13.8102 </r>
       <r>    11.7540     1.5792    13.9366 </r>
       <r>    11.8340     1.0778    14.0229 </r>
       <r>    11.9141     0.5077    14.0635 </r>
       <r>    11.9942     0.6610    14.1165 </r>
       <r>    12.0742     1.0617    14.2015 </r>
       <r>    12.1543     1.2532    14.3018 </r>
       <r>    12.2343     1.2415    14.4012 </r>
       <r>    12.3144     1.3242    14.5072 </r>
       <r>    12.3944     1.5245    14.6292 </r>
       <r>    12.4745     1.2509    14.7294 </r>
       <r>    12.5546     0.6552    14.7818 </r>
       <r>    12.6346     0.6913    14.8372 </r>
       <r>    12.7147     1.0099    14.9180 </r>
       <r>    12.7947     0.8060    14.9826 </r>
       <r>    12.8748     0.5811    15.0291 </r>
       <r>    12.9548     0.5533    15.0734 </r>
       <r>    13.0349     0.3200    15.0990 </r>
       <r>    13.1150     0.3896    15.1302 </r>
       <r>    13.1950     0.7801    15.1926 </r>
       <r>    13.2751     0.8852    15.2635 </r>
       <r>    13.3551     0.7656    15.3248 </r>
       <r>    13.4352     0.4670    15.3622 </r>
       <r>    13.5152     0.2744    15.3841 </r>
       <r>    13.5953     0.3621    15.4131 </r>
       <r>    13.6753     0.8398    15.4804 </r>
       <r>    13.7554     1.0281    15.5627 </r>
       <r>    13.8355     0.8697    15.6323 </r>
       <r>    13.9155     0.7842    15.6951 </r>
       <r>    13.9956     0.5556    15.7396 </r>
       <r>    14.0756     0.4945    15.7791 </r>
       <r>    14.1557     0.7661    15.8405 </r>
       <r>    14.2357     0.6555    15.8930 </r>
       <r>    14.3158     0.1927    15.9084 </r>
       <r>    14.3959     0.0178    15.9098 </r>
       <r>    14.4759     0.0005    15.9098 </r>
       <r>    14.5560     0.0000    15.9098 </r>
       <r>    14.6360     0.0000    15.9098 </r>
       <r>    14.7161     0.0000    15.9098 </r>
       <r>    14.7961     0.0000    15.9098 </r>
       <r>    14.8762     0.0000    15.9098 </r>
       <r>    14.9563     0.0000    15.9098 </r>
       <r>    15.0363     0.0000    15.9098 </r>
       <r>    15.1164     0.0003    15.9099 </r>
       <r>    15.1964     0.0078    15.9105 </r>
       <r>    15.2765     0.0681    15.9159 </r>
       <r>    15.3565     0.1962    15.9316 </r>
       <r>    15.4366     0.2359    15.9505 </r>
       <r>    15.5167     0.2045    15.9669 </r>
       <r>    15.5967     0.1508    15.9790 </r>
       <r>    15.6768     0.1083    15.9876 </r>
       <r>    15.7568     0.1010    15.9957 </r>
       <r>    15.8369     0.0461    15.9994 </r>
       <r>    15.9169     0.0069    16.0000 </r>
       <r>    15.9970     0.0003    16.0000 </r>
       <r>    16.0771     0.0000    16.0000 </r>
       <r>    16.1571     0.0000    16.0000 </r>
       <r>    16.2372     0.0000    16.0000 </r>
       <r>    16.3172     0.0000    16.0000 </r>
       <r>    16.3973     0.0000    16.0000 </r>
       <r>    16.4773     0.0000    16.0000 </r>
       <r>    16.5574     0.0000    16.0000 </r>
       <r>    16.6375     0.0000    16.0000 </r>
       <r>    16.7175     0.0000    16.0000 </r>
       <r>    16.7976     0.0000    16.0000 </r>
      </set>
     </set>
    </array>
   </total>
  </dos>
 </calculation>
 <structure name="finalpos" >
  <crystal>
   <varray name="basis" >
    <v>      -0.00000000       2.69950243       2.69950243 </v>
    <v>       2.69950243      -0.00000000       2.69950243 </v>
    <v>       2.69950243       2.69950243      -0.00000000 </v>
   </varray>
   <i name="volume">     39.34424044 </i>
   <varray name="rec_basis" >
    <v>      -0.18521932       0.18521932       0.18521932 </v>
    <v>       0.18521932      -0.18521932       0.18521932 </v>
    <v>       0.18521932       0.18521932      -0.18521932 </v>
   </varray>
  </crystal>
  <varray name="positions" >
   <v>       0.87500000       0.87500000       0.87500000 </v>
   <v>       0.12500000       0.12500000       0.12500000 </v>
  </varray>
 </structure>
</modeling>
