 running on    1 total cores
 distrk:  each k-point on    1 cores,    1 groups
 distr:  one band on    1 cores,    1 groups
 using from now: INCAR     
 vasp.5.3.5 31Mar14 (build Feb  5 2015 19:39:53) complex                        
  
 POSCAR found :  1 types and       2 ions
 scaLAPACK will be used
 LDA part: xc-table for Ceperly-Alder, standard interpolation
 POSCAR, INCAR and KPOINTS ok, starting setup
 WARNING: small aliasing (wrap around) errors must be expected
 FFT: planning ...
 WAVECAR not read
 entering main loop
       N       E                     dE             d eps       ncg     rms          rms(c)
DAV:   1    -0.288569514233E+01   -0.28857E+01   -0.20049E+03   912   0.422E+02
DAV:   2    -0.120018564343E+02   -0.91162E+01   -0.88757E+01  1440   0.559E+01
DAV:   3    -0.120964629719E+02   -0.94607E-01   -0.94607E-01  1224   0.702E+00
DAV:   4    -0.120966865319E+02   -0.22356E-03   -0.22356E-03  1360   0.323E-01
DAV:   5    -0.120966866696E+02   -0.13771E-06   -0.13778E-06  1264   0.751E-03    0.294E+00
DAV:   6    -0.119364890317E+02    0.16020E+00   -0.10339E-01  1072   0.159E+00    0.171E+00
DAV:   7    -0.118611231944E+02    0.75366E-01   -0.18294E-01  1064   0.216E+00    0.152E-01
DAV:   8    -0.118612648327E+02   -0.14164E-03   -0.48187E-03   984   0.503E-01    0.273E-02
DAV:   9    -0.118612339039E+02    0.30929E-04   -0.14643E-04  1112   0.756E-02
   1 F= -.11861234E+02 E0= -.11861234E+02  d E =-.118612E+02
 curvature:   0.00 expect dE= 0.000E+00 dE for cont linesearch  0.000E+00
 trial: gam= 0.00000 g(F)=  0.309E-43 g(S)=  0.000E+00 ort = 0.000E+00 (trialstep = 0.100E+01)
 search vector abs. value=  0.100E-09
 reached required accuracy - stopping structural energy minimisation
 writing wavefunctions
