diamond Si                              
   4.30000000000000     
     0.452272    0.452272   -0.000000
     0.000000    0.452272    0.452272
     0.452272    0.000000    0.452272
   Si
     1
Direct
  0.000000  0.000000  0.000000
 
   24   24   24
 -3.2879     -2.3667     0.48469E-01  3.0789      5.7197      7.2608      7.5229      6.8276      5.7626      4.7990    
  4.0749      3.6349      3.4883      3.6349      4.0749      4.7990      5.7626      6.8276      7.5229      7.2608    
  5.7197      3.0789     0.48469E-01 -2.3667     -2.3667     -.70145      2.0006      4.7802      6.7750      7.5539    
  7.2154      6.2433      5.2051      4.3624      3.7853      3.4959      3.4959      3.7852      4.3624      5.2051    
  6.2433      7.2155      7.5540      6.7752      4.7804      2.0006     -.70151     -2.3667     0.48469E-01  2.0006    
  4.4066      6.4196      7.4595      7.4129      6.5974      5.5439      4.6210      3.9327      3.5161      3.3775    
  3.5160      3.9326      4.6210      5.5439      6.5975      7.4131      7.4598      6.4198      4.4067      2.0007    
 0.48496E-01 -.70151      3.0789      4.7802      6.4196      7.4047      7.4834      6.8039      5.7856      4.8255    
  4.0605      3.5419      3.2832      3.2832      3.5418      4.0605      4.8254      5.7856      6.8039      7.4836    
  7.4049      6.4198      4.7804      3.0791      2.0007      2.0006      5.7197      6.7750      7.4595      7.4834    
  6.8703      5.9110      4.9560      4.1541      3.5657      3.2128      3.0959      3.2128      3.5657      4.1540    
  4.9559      5.9110      6.8703      7.4835      7.4597      6.7752      5.7198      4.7804      4.4067      4.7804    
  7.2608      7.5539      7.4129      6.8039      5.9110      5.0007      4.2032      3.5820      3.1656      2.9590    
  2.9591      3.1657      3.5820      4.2032      5.0007      5.9110      6.8039      7.4129      7.5540      7.2608    
  6.7752      6.4198      6.4198      6.7752      7.5229      7.2154      6.5974      5.7856      4.9560      4.2032    
  3.5876      3.1418      2.8756      2.7876      2.8757      3.1419      3.5877      4.2033      4.9560      5.7856    
  6.5974      7.2154      7.5228      7.5540      7.4597      7.4049      7.4598      7.5540      6.8276      6.2433    
  5.5439      4.8255      4.1541      3.5820      3.1418      2.8476      2.7013      2.7013      2.8476      3.1419    
  3.5821      4.1542      4.8255      5.5439      6.2433      6.8275      7.2154      7.4129      7.4835      7.4836    
  7.4131      7.2155      5.7626      5.2051      4.6210      4.0605      3.5657      3.1656      2.8756      2.7013    
  2.6433      2.7013      2.8756      3.1656      3.5658      4.0607      4.6212      5.2052      5.7626      6.2433    
  6.5974      6.8039      6.8703      6.8039      6.5975      6.2433      4.7990      4.3624      3.9327      3.5419    
  3.2128      2.9590      2.7876      2.7013      2.7013      2.7875      2.9589      3.2127      3.5419      3.9328    
  4.3625      4.7991      5.2052      5.5439      5.7856      5.9110      5.9110      5.7856      5.5439      5.2051    
  4.0749      3.7853      3.5161      3.2832      3.0959      2.9591      2.8757      2.8476      2.8756      2.9589    
  3.0957      3.2830      3.5160      3.7853      4.0751      4.3625      4.6212      4.8255      4.9560      5.0007    
  4.9559      4.8254      4.6210      4.3624      3.6349      3.4959      3.3775      3.2832      3.2128      3.1657    
  3.1419      3.1419      3.1656      3.2127      3.2830      3.3773      3.4957      3.6348      3.7853      3.9328    
  4.0607      4.1542      4.2033      4.2032      4.1540      4.0605      3.9326      3.7852      3.4883      3.4959    
  3.5160      3.5418      3.5657      3.5820      3.5877      3.5821      3.5658      3.5419      3.5160      3.4957    
  3.4881      3.4957      3.5160      3.5419      3.5658      3.5821      3.5877      3.5820      3.5657      3.5418    
  3.5160      3.4959      3.6349      3.7852      3.9326      4.0605      4.1540      4.2032      4.2033      4.1542    
  4.0607      3.9328      3.7853      3.6348      3.4957      3.3773      3.2830      3.2127      3.1656      3.1419    
  3.1419      3.1657      3.2128      3.2832      3.3775      3.4959      4.0749      4.3624      4.6210      4.8254    
  4.9559      5.0007      4.9560      4.8255      4.6212      4.3625      4.0751      3.7853      3.5160      3.2830    
  3.0957      2.9589      2.8756      2.8476      2.8757      2.9591      3.0959      3.2832      3.5161      3.7853    
  4.7990      5.2051      5.5439      5.7856      5.9110      5.9110      5.7856      5.5439      5.2052      4.7991    
  4.3625      3.9328      3.5419      3.2127      2.9589      2.7875      2.7013      2.7013      2.7876      2.9590    
  3.2128      3.5419      3.9327      4.3624      5.7626      6.2433      6.5975      6.8039      6.8703      6.8039    
  6.5974      6.2433      5.7626      5.2052      4.6212      4.0607      3.5658      3.1656      2.8756      2.7013    
  2.6433      2.7013      2.8756      3.1656      3.5657      4.0605      4.6210      5.2051      6.8276      7.2155    
  7.4131      7.4836      7.4835      7.4129      7.2154      6.8275      6.2433      5.5439      4.8255      4.1542    
  3.5821      3.1419      2.8476      2.7013      2.7013      2.8476      3.1418      3.5820      4.1541      4.8255    
  5.5439      6.2433      7.5229      7.5540      7.4598      7.4049      7.4597      7.5540      7.5228      7.2154    
  6.5974      5.7856      4.9560      4.2033      3.5877      3.1419      2.8757      2.7876      2.8756      3.1418    
  3.5876      4.2032      4.9560      5.7856      6.5974      7.2154      7.2608      6.7752      6.4198      6.4198    
  6.7752      7.2608      7.5540      7.4129      6.8039      5.9110      5.0007      4.2032      3.5820      3.1657    
  2.9591      2.9590      3.1656      3.5820      4.2032      5.0007      5.9110      6.8039      7.4129      7.5539    
  5.7197      4.7804      4.4067      4.7804      5.7198      6.7752      7.4597      7.4835      6.8703      5.9110    
  4.9559      4.1540      3.5657      3.2128      3.0959      3.2128      3.5657      4.1541      4.9560      5.9110    
  6.8703      7.4834      7.4595      6.7750      3.0789      2.0006      2.0007      3.0791      4.7804      6.4198    
  7.4049      7.4836      6.8039      5.7856      4.8254      4.0605      3.5418      3.2832      3.2832      3.5419    
  4.0605      4.8255      5.7856      6.8039      7.4834      7.4047      6.4196      4.7802     0.48469E-01 -.70151    
 0.48496E-01  2.0007      4.4067      6.4198      7.4598      7.4131      6.5975      5.5439      4.6210      3.9326    
  3.5160      3.3775      3.5161      3.9327      4.6210      5.5439      6.5974      7.4129      7.4595      6.4196    
  4.4066      2.0006     -2.3667     -2.3667     -.70151      2.0006      4.7804      6.7752      7.5540      7.2155    
  6.2433      5.2051      4.3624      3.7852      3.4959      3.4959      3.7853      4.3624      5.2051      6.2433    
  7.2154      7.5539      6.7750      4.7802      2.0006     -.70145     -2.3666     -.70151      2.0005      4.7801    
  6.7750      7.5540      7.2155      6.2433      5.2051      4.3624      3.7853      3.4959      3.4959      3.7852    
  4.3624      5.2051      6.2434      7.2155      7.5539      6.7751      4.7803      2.0007     -.70138     -2.3666    
 -.70151      1.4004      4.0076      6.2214      7.4198      7.4688      6.6881      5.6280      4.6907      3.9899    
  3.5653      3.4240      3.5652      3.9899      4.6907      5.6280      6.6881      7.4688      7.4200      6.2216    
  4.0079      1.4007     -.70138     -1.5070      2.0005      4.0076      5.9923      7.2787      7.5605      6.9727    
  5.9572      4.9689      4.1772      3.6389      3.3699      3.3699      3.6388      4.1772      4.9688      5.9572    
  6.9727      7.5605      7.2788      5.9926      4.0079      2.0008     0.74209     0.74197      4.7801      6.2214    
  7.2787      7.5779      7.1056      6.1648      5.1701      4.3271      3.7057      3.3320      3.2081      3.3320    
  3.7057      4.3270      5.1700      6.1647      7.1055      7.5779      7.2789      6.2217      4.7805      3.5489    
  3.0660      3.5486      6.7750      7.4198      7.5605      7.1056      6.2352      5.2754      4.4235      3.7557    
  3.3068      3.0839      3.0839      3.3068      3.7557      4.4235      5.2752      6.2350      7.1055      7.5605    
  7.4200      6.7752      5.9649      5.4143      5.4142      5.9647      7.5540      7.4688      6.9727      6.1648    
  5.2754      4.4567      3.7822      3.2922      2.9995      2.9027      2.9996      3.2923      3.7823      4.4567    
  5.2753      6.1647      6.9726      7.4687      7.5540      7.3265      7.0252      6.8913      7.0251      7.3264    
  7.2155      6.6881      5.9572      5.1701      4.4235      3.7822      3.2874      2.9567      2.7927      2.7927    
  2.9568      3.2875      3.7823      4.4236      5.1701      5.9572      6.6880      7.2154      7.4772      7.5344    
  7.5136      7.5136      7.5344      7.4773      6.2433      5.6280      4.9689      4.3271      3.7557      3.2922    
  2.9567      2.7558      2.6891      2.7558      2.9568      3.2923      3.7558      4.3272      4.9690      5.6280    
  6.2433      6.7375      7.0591      7.2223      7.2696      7.2224      7.0593      6.7376      5.2051      4.6907    
  4.1772      3.7057      3.3068      2.9995      2.7927      2.6891      2.6890      2.7926      2.9995      3.3068    
  3.7058      4.1774      4.6908      5.2052      5.6754      6.0607      6.3275      6.4606      6.4606      6.3276    
  6.0608      5.6754      4.3624      3.9899      3.6389      3.3320      3.0839      2.9027      2.7927      2.7558    
  2.7926      2.9026      3.0837      3.3319      3.6389      3.9901      4.3625      4.7264      5.0491      5.3010    
  5.4604      5.5148      5.4604      5.3010      5.0490      4.7263      3.7853      3.5653      3.3699      3.2081    
  3.0839      2.9996      2.9568      2.9568      2.9995      3.0837      3.2079      3.3698      3.5652      3.7853    
  4.0151      4.2342      4.4207      4.5557      4.6263      4.6262      4.5556      4.4205      4.2340      4.0150    
  3.4959      3.4240      3.3699      3.3320      3.3068      3.2923      3.2875      3.2923      3.3068      3.3319    
  3.3698      3.4238      3.4957      3.5831      3.6779      3.7682      3.8418      3.8894      3.9058      3.8893    
  3.8416      3.7681      3.6779      3.5832      3.4959      3.5652      3.6388      3.7057      3.7557      3.7823    
  3.7823      3.7558      3.7058      3.6389      3.5652      3.4957      3.4393      3.3994      3.3745      3.3601    
  3.3522      3.3485      3.3485      3.3521      3.3601      3.3745      3.3996      3.4395      3.7852      3.9899    
  4.1772      4.3270      4.4235      4.4567      4.4236      4.3272      4.1774      3.9901      3.7853      3.5831    
  3.3994      3.2437      3.1203      3.0307      2.9761      2.9578      2.9762      3.0308      3.1204      3.2439    
  3.3996      3.5832      4.3624      4.6907      4.9688      5.1700      5.2752      5.2753      5.1701      4.9690    
  4.6908      4.3625      4.0151      3.6779      3.3745      3.1203      2.9243      2.7914      2.7242      2.7243    
  2.7915      2.9245      3.1204      3.3745      3.6779      4.0150      5.2051      5.6280      5.9572      6.1647    
  6.2350      6.1647      5.9572      5.6280      5.2052      4.7264      4.2342      3.7682      3.3601      3.0307    
  2.7914      2.6469      2.5987      2.6469      2.7915      3.0308      3.3601      3.7681      4.2340      4.7263    
  6.2434      6.6881      6.9727      7.1055      7.1055      6.9726      6.6880      6.2433      5.6754      5.0491    
  4.4207      3.8418      3.3522      2.9761      2.7242      2.5987      2.5987      2.7242      2.9761      3.3521    
  3.8417      4.4205      5.0490      5.6754      7.2155      7.4688      7.5605      7.5779      7.5605      7.4687    
  7.2154      6.7375      6.0607      5.3010      4.5557      3.8894      3.3485      2.9578      2.7243      2.6469    
  2.7242      2.9577      3.3484      3.8893      4.5556      5.3010      6.0607      6.7376      7.5539      7.4200    
  7.2788      7.2789      7.4200      7.5540      7.4772      7.0591      6.3275      5.4604      4.6263      3.9058    
  3.3485      2.9762      2.7915      2.7915      2.9761      3.3484      3.9057      4.6263      5.4605      6.3276    
  7.0592      7.4773      6.7751      6.2216      5.9926      6.2217      6.7752      7.3265      7.5344      7.2223    
  6.4606      5.5148      4.6262      3.8893      3.3521      3.0308      2.9245      3.0308      3.3521      3.8893    
  4.6263      5.5149      6.4607      7.2224      7.5343      7.3263      4.7803      4.0079      4.0079      4.7805    
  5.9649      7.0252      7.5136      7.2696      6.4606      5.4604      4.5556      3.8416      3.3601      3.1204    
  3.1204      3.3601      3.8417      4.5556      5.4605      6.4607      7.2696      7.5135      7.0250      5.9647    
  2.0007      1.4007      2.0008      3.5489      5.4143      6.8913      7.5136      7.2224      6.3276      5.3010    
  4.4205      3.7681      3.3745      3.2439      3.3745      3.7681      4.4205      5.3010      6.3276      7.2224    
  7.5135      6.8911      5.4140      3.5487     -.70138     -.70138     0.74209      3.0660      5.4142      7.0251    
  7.5344      7.0593      6.0608      5.0490      4.2340      3.6779      3.3996      3.3996      3.6779      4.2340    
  5.0490      6.0607      7.0592      7.5343      7.0250      5.4140      3.0659     0.74208     -2.3666     -1.5070    
 0.74197      3.5486      5.9647      7.3264      7.4773      6.7376      5.6754      4.7263      4.0150      3.5832    
  3.4395      3.5832      4.0150      4.7263      5.6754      6.7376      7.4773      7.3263      5.9647      3.5487    
 0.74208     -1.5069     0.48541E-01  2.0006      4.4065      6.4195      7.4595      7.4129      6.5975      5.5439    
  4.6210      3.9327      3.5161      3.3775      3.5160      3.9326      4.6210      5.5439      6.5975      7.4131    
  7.4597      6.4197      4.4066      2.0006     0.48566E-01 -.70140      2.0006      4.0076      5.9922      7.2785    
  7.5603      6.9727      5.9572      4.9689      4.1773      3.6389      3.3699      3.3699      3.6388      4.1772    
  4.9688      5.9572      6.9727      7.5606      7.2788      5.9925      4.0078      2.0007     0.74214     0.74210    
  4.4065      5.9922      7.1904      7.5957      7.1806      6.2517      5.2444      4.3874      3.7545      3.3735    
  3.2472      3.3735      3.7544      4.3872      5.2442      6.2516      7.1805      7.5958      7.1906      5.9925    
  4.4067      3.0661      2.5427      3.0660      6.4195      7.2785      7.5957      7.2452      6.4026      5.4207    
  4.5409      3.8485      3.3823      3.1506      3.1506      3.3823      3.8484      4.5407      5.4205      6.4024    
  7.2451      7.5957      7.2788      6.4198      5.4144      4.7471      4.7470      5.4141      7.4595      7.5603    
  7.1806      6.4026      5.4814      4.6218      3.9095      3.3909      3.0808      2.9783      3.0809      3.3909    
  3.9095      4.6216      5.4811      6.4023      7.1804      7.5603      7.4596      7.0252      6.5618      6.3664    
  6.5616      7.0250      7.4129      6.9727      6.2517      5.4207      4.6218      3.9307      3.3958      3.0384    
  2.8611      2.8612      3.0385      3.3959      3.9307      4.6217      5.4205      6.2515      6.9725      7.4128    
  7.5343      7.4481      7.3372      7.3372      7.4481      7.5343      6.5975      5.9572      5.2444      4.5409    
  3.9095      3.3958      3.0241      2.8018      2.7282      2.8019      3.0242      3.3960      3.9097      4.5409    
  5.2443      5.9571      6.5973      7.0591      7.3117      7.4089      7.4292      7.4089      7.3118      7.0592    
  5.5439      4.9689      4.3874      3.8485      3.3909      3.0384      2.8018      2.6838      2.6838      2.8019    
  3.0384      3.3910      3.8486      4.3875      4.9690      5.5439      6.0606      6.4669      6.7281      6.8502    
  6.8502      6.7282      6.4670      6.0607      4.6210      4.1773      3.7545      3.3823      3.0808      2.8611    
  2.7282      2.6838      2.7282      2.8610      3.0808      3.3823      3.7545      4.1774      4.6212      5.0491    
  5.4235      5.7120      5.8927      5.9540      5.8927      5.7120      5.4234      5.0490      3.9327      3.6389    
  3.3735      3.1506      2.9783      2.8612      2.8019      2.8019      2.8610      2.9781      3.1504      3.3734    
  3.6389      3.9328      4.2342      4.5171      4.7551      4.9260      5.0149      5.0148      4.9258      4.7550    
  4.5170      4.2340      3.5161      3.3699      3.2472      3.1506      3.0809      3.0385      3.0242      3.0384    
  3.0808      3.1504      3.2470      3.3698      3.5160      3.6779      3.8425      3.9931      4.1133      4.1902    
  4.2166      4.1901      4.1131      3.9929      3.8424      3.6779      3.3775      3.3699      3.3735      3.3823    
  3.3909      3.3959      3.3960      3.3910      3.3823      3.3734      3.3698      3.3773      3.3994      3.4345    
  3.4763      3.5163      3.5469      3.5632      3.5632      3.5468      3.5162      3.4763      3.4346      3.3996    
  3.5160      3.6388      3.7544      3.8484      3.9095      3.9307      3.9097      3.8486      3.7545      3.6389    
  3.5160      3.3994      3.2989      3.2184      3.1578      3.1154      3.0899      3.0813      3.0899      3.1154    
  3.1579      3.2186      3.2990      3.3996      3.9326      4.1772      4.3872      4.5407      4.6216      4.6217    
  4.5409      4.3875      4.1774      3.9328      3.6779      3.4345      3.2184      3.0390      2.9011      2.8073    
  2.7598      2.7598      2.8074      2.9012      3.0392      3.2186      3.4346      3.6779      4.6210      4.9688    
  5.2442      5.4205      5.4811      5.4205      5.2443      4.9690      4.6212      4.2342      3.8425      3.4763    
  3.1578      2.9011      2.7138      2.6002      2.5621      2.6003      2.7140      2.9012      3.1579      3.4763    
  3.8424      4.2340      5.5439      5.9572      6.2516      6.4024      6.4023      6.2515      5.9571      5.5439    
  5.0491      4.5171      3.9931      3.5163      3.1154      2.8073      2.6002      2.4965      2.4965      2.6003    
  2.8074      3.1153      3.5162      3.9929      4.5169      5.0490      6.5975      6.9727      7.1805      7.2451    
  7.1804      6.9725      6.5973      6.0606      5.4235      4.7551      4.1133      3.5469      3.0899      2.7598    
  2.5621      2.4965      2.5621      2.7598      3.0898      3.5468      4.1131      4.7550      5.4234      6.0608    
  7.4131      7.5606      7.5958      7.5957      7.5603      7.4128      7.0591      6.4669      5.7120      4.9260    
  4.1902      3.5632      3.0813      2.7598      2.6003      2.6003      2.7598      3.0812      3.5631      4.1902    
  4.9259      5.7120      6.4671      7.0593      7.4597      7.2788      7.1906      7.2788      7.4596      7.5343    
  7.3117      6.7281      5.8927      5.0149      4.2166      3.5632      3.0899      2.8074      2.7140      2.8074    
  3.0898      3.5631      4.2166      5.0149      5.8928      6.7283      7.3119      7.5344      6.4197      5.9925    
  5.9925      6.4198      7.0252      7.4481      7.4089      6.8502      5.9540      5.0148      4.1901      3.5468    
  3.1154      2.9012      2.9012      3.1153      3.5468      4.1902      5.0149      5.9541      6.8503      7.4090    
  7.4481      7.0252      4.4066      4.0078      4.4067      5.4144      6.5618      7.3372      7.4292      6.8502    
  5.8927      4.9258      4.1131      3.5162      3.1579      3.0392      3.1579      3.5162      4.1131      4.9259    
  5.8928      6.8503      7.4293      7.3372      6.5616      5.4142      2.0006      2.0007      3.0661      4.7471    
  6.3664      7.3372      7.4089      6.7282      5.7120      4.7550      3.9929      3.4763      3.2186      3.2186    
  3.4763      3.9929      4.7550      5.7120      6.7283      7.4090      7.3372      6.3662      4.7469      3.0660    
 0.48566E-01 0.74214      2.5427      4.7470      6.5616      7.4481      7.3118      6.4670      5.4234      4.5170    
  3.8424      3.4346      3.2990      3.4346      3.8424      4.5169      5.4234      6.4671      7.3119      7.4481    
  6.5616      4.7469      2.5425     0.74204     -.70140     0.74210      3.0660      5.4141      7.0250      7.5343    
  7.0592      6.0607      5.0490      4.2340      3.6779      3.3996      3.3996      3.6779      4.2340      5.0490    
  6.0608      7.0593      7.5344      7.0252      5.4142      3.0660     0.74204     -.70143      3.0789      4.7802    
  6.4196      7.4047      7.4834      6.8039      5.7856      4.8254      4.0605      3.5419      3.2832      3.2832    
  3.5418      4.0605      4.8254      5.7856      6.8039      7.4836      7.4049      6.4198      4.7805      3.0791    
  2.0006      2.0005      4.7802      6.2214      7.2787      7.5778      7.1055      6.1647      5.1700      4.3271    
  3.7057      3.3320      3.2081      3.3320      3.7057      4.3270      5.1700      6.1647      7.1055      7.5780    
  7.2789      6.2217      4.7804      3.5488      3.0660      3.5487      6.4196      7.2787      7.5957      7.2451    
  6.4025      5.4206      4.5408      3.8485      3.3823      3.1506      3.1506      3.3823      3.8484      4.5407    
  5.4205      6.4024      7.2451      7.5958      7.2788      6.4197      5.4143      4.7470      4.7470      5.4141    
  7.4047      7.5778      7.2451      6.4826      5.5524      4.6790      3.9539      3.4253      3.1091      3.0046    
  3.1092      3.4253      3.9538      4.6788      5.5522      6.4825      7.2450      7.5777      7.4047      6.8913    
  6.3663      6.1478      6.3663      6.8912      7.4834      7.1055      6.4025      5.5524      4.7267      4.0097    
  3.4538      3.0821      2.8978      2.8978      3.0821      3.4538      4.0096      4.7266      5.5522      6.4023    
  7.1053      7.4832      7.5134      7.3371      7.1704      7.1705      7.3372      7.5136      6.8039      6.1647    
  5.4206      4.6790      4.0097      3.4637      3.0686      2.8325      2.7544      2.8326      3.0686      3.4638    
  4.0097      4.6790      5.4206      6.1646      6.8036      7.2221      7.4087      7.4475      7.4448      7.4477    
  7.4090      7.2224      5.7856      5.1700      4.5408      3.9539      3.4538      3.0686      2.8106      2.6821    
  2.6821      2.8106      3.0686      3.4539      3.9540      4.5409      5.1701      5.7855      6.3274      6.7280    
  6.9658      7.0687      7.0688      6.9660      6.7282      6.3276      4.8254      4.3271      3.8485      3.4253    
  3.0821      2.8325      2.6821      2.6319      2.6821      2.8325      3.0821      3.4253      3.8486      4.3273    
  4.8255      5.3010      5.7119      6.0245      6.2153      6.2785      6.2154      6.0246      5.7120      5.3010    
  4.0605      3.7057      3.3823      3.1091      2.8978      2.7544      2.6821      2.6821      2.7543      2.8977    
  3.1091      3.3823      3.7058      4.0607      4.4207      4.7551      5.0337      5.2324      5.3353      5.3353    
  5.2323      5.0336      4.7549      4.4205      3.5419      3.3320      3.1506      3.0046      2.8978      2.8326    
  2.8106      2.8325      2.8977      3.0044      3.1504      3.3319      3.5419      3.7682      3.9931      4.1957    
  4.3558      4.4581      4.4931      4.4580      4.3557      4.1955      3.9929      3.7681      3.2832      3.2081    
  3.1506      3.1092      3.0821      3.0686      3.0686      3.0821      3.1091      3.1504      3.2079      3.2830    
  3.3745      3.4763      3.5782      3.6675      3.7333      3.7680      3.7679      3.7332      3.6673      3.5780    
  3.4763      3.3745      3.2832      3.3320      3.3823      3.4253      3.4538      3.4638      3.4539      3.4253    
  3.3823      3.3319      3.2830      3.2437      3.2184      3.2066      3.2042      3.2061      3.2084      3.2093    
  3.2083      3.2060      3.2042      3.2067      3.2186      3.2439      3.5418      3.7057      3.8484      3.9538    
  4.0096      4.0097      3.9540      3.8486      3.7058      3.5419      3.3745      3.2184      3.0834      2.9739    
  2.8909      2.8348      2.8064      2.8064      2.8349      2.8909      2.9740      3.0836      3.2186      3.3745    
  4.0605      4.3270      4.5407      4.6788      4.7266      4.6790      4.5409      4.3273      4.0607      3.7682    
  3.4763      3.2066      2.9739      2.7866      2.6497      2.5662      2.5381      2.5662      2.6498      2.7867    
  2.9740      3.2067      3.4763      3.7681      4.8254      5.1700      5.4205      5.5522      5.5522      5.4206    
  5.1701      4.8255      4.4207      3.9931      3.5782      3.2042      2.8909      2.6497      2.4867      2.4046    
  2.4047      2.4868      2.6498      2.8909      3.2042      3.5780      3.9929      4.4205      5.7856      6.1647    
  6.4024      6.4825      6.4023      6.1646      5.7855      5.3010      4.7551      4.1957      3.6675      3.2061    
  2.8348      2.5662      2.4046      2.3509      2.4047      2.5662      2.8348      3.2060      3.6674      4.1955    
  4.7550      5.3010      6.8039      7.1055      7.2451      7.2450      7.1053      6.8036      6.3274      5.7119    
  5.0337      4.3558      3.7333      3.2084      2.8064      2.5381      2.4047      2.4047      2.5381      2.8064    
  3.2083      3.7332      4.3557      5.0337      5.7120      6.3276      7.4836      7.5780      7.5958      7.5777    
  7.4832      7.2221      6.7280      6.0245      5.2324      4.4581      3.7680      3.2093      2.8064      2.5662    
  2.4868      2.5662      2.8064      3.2092      3.7679      4.4580      5.2324      6.0246      6.7282      7.2224    
  7.4049      7.2789      7.2788      7.4047      7.5134      7.4087      6.9658      6.2153      5.3353      4.4931    
  3.7679      3.2083      2.8349      2.6498      2.6498      2.8348      3.2083      3.7679      4.4931      5.3354    
  6.2154      6.9660      7.4089      7.5137      6.4198      6.2217      6.4197      6.8913      7.3371      7.4475    
  7.0687      6.2785      5.3353      4.4580      3.7332      3.2060      2.8909      2.7867      2.8909      3.2060    
  3.7332      4.4580      5.3354      6.2786      7.0688      7.4477      7.3373      6.8914      4.7805      4.7804    
  5.4143      6.3663      7.1704      7.4448      7.0688      6.2154      5.2323      4.3557      3.6673      3.2042    
  2.9740      2.9740      3.2042      3.6674      4.3557      5.2324      6.2154      7.0688      7.4448      7.1705    
  6.3664      5.4144      3.0791      3.5488      4.7470      6.1478      7.1705      7.4477      6.9660      6.0246    
  5.0336      4.1955      3.5780      3.2067      3.0836      3.2067      3.5780      4.1955      5.0337      6.0246    
  6.9660      7.4477      7.1705      6.1479      4.7471      3.5489      2.0006      3.0660      4.7470      6.3663    
  7.3372      7.4090      6.7282      5.7120      4.7549      3.9929      3.4763      3.2186      3.2186      3.4763    
  3.9929      4.7550      5.7120      6.7282      7.4089      7.3373      6.3664      4.7471      3.0661      2.0007    
  2.0005      3.5487      5.4141      6.8912      7.5136      7.2224      6.3276      5.3010      4.4205      3.7681    
  3.3745      3.2439      3.3745      3.7681      4.4205      5.3010      6.3276      7.2224      7.5137      6.8914    
  5.4144      3.5489      2.0007      1.4005      5.7195      6.7749      7.4595      7.4835      6.8704      5.9111    
  4.9560      4.1540      3.5657      3.2128      3.0959      3.2128      3.5657      4.1540      4.9559      5.9110    
  6.8703      7.4835      7.4597      6.7753      5.7199      4.7805      4.4067      4.7803      6.7749      7.4198    
  7.5605      7.1056      6.2352      5.2754      4.4235      3.7557      3.3068      3.0839      3.0839      3.3068    
  3.7557      4.4235      5.2752      6.2350      7.1054      7.5605      7.4200      6.7753      5.9650      5.4143    
  5.4142      5.9647      7.4595      7.5605      7.1806      6.4026      5.4813      4.6217      3.9095      3.3908    
  3.0808      2.9783      3.0809      3.3909      3.9095      4.6216      5.4811      6.4023      7.1804      7.5604    
  7.4597      7.0252      6.5617      6.3663      6.5615      7.0250      7.4835      7.1056      6.4026      5.5524    
  4.7267      4.0096      3.4537      3.0821      2.8978      2.8978      3.0821      3.4538      4.0096      4.7266    
  5.5522      6.4023      7.1053      7.4833      7.5135      7.3371      7.1704      7.1704      7.3371      7.5135    
  6.8704      6.2352      5.4813      4.7267      4.0443      3.4873      3.0841      2.8433      2.7636      2.8433    
  3.0841      3.4874      4.0444      4.7267      5.4812      6.2349      6.8700      7.2693      7.4290      7.4447    
  7.4329      7.4448      7.4293      7.2696      5.9111      5.2754      4.6217      4.0096      3.4873      3.0849    
  2.8157      2.6817      2.6817      2.8157      3.0850      3.4874      4.0098      4.6218      5.2753      5.9109    
  6.4603      6.8499      7.0685      7.1571      7.1573      7.0688      6.8503      6.4607      4.9560      4.4235    