diamond Si                              
   4.30000000000000     
     0.445088    0.445088   -0.000000
     0.000000    0.445088    0.445088
     0.445088    0.000000    0.445088
   Si
     1
Direct
  0.000000  0.000000  0.000000
 
   24   24   24
 -.23556203931E+01 -.18334828285E+01 -.41916568651E+00 0.14867606069E+01 0.33799246364E+01
 0.48263838515E+01 0.55952389954E+01 0.57015071589E+01 0.53560823326E+01 0.48576093696E+01
 0.44326736228E+01 0.41558386850E+01 0.40601589429E+01 0.41558386850E+01 0.44326736228E+01
 0.48576093696E+01 0.53560823326E+01 0.57015071589E+01 0.55952389954E+01 0.48263838515E+01
 0.33799246364E+01 0.14867606069E+01 -.41916568651E+00 -.18334828285E+01 -.18334828285E+01
 -.86617425883E+00 0.78679111442E+00 0.26656523641E+01 0.42966618772E+01 0.53490578859E+01
 0.57230907657E+01 0.55434601075E+01 0.50760445349E+01 0.46001527798E+01 0.42458701421E+01
 0.40585221973E+01 0.40585003771E+01 0.42458321770E+01 0.46001468164E+01 0.50760762638E+01
 0.55434830163E+01 0.57230735976E+01 0.53490377254E+01 0.42966914114E+01 0.26657096354E+01
 0.78680051329E+00 -.86622595884E+00 -.18335178212E+01 -.41916568651E+00 0.78679111442E+00
 0.23964737135E+01 0.39662973200E+01 0.51206101856E+01 0.56686817347E+01 0.56403918428E+01
 0.52385030738E+01 0.47372267476E+01 0.43218331163E+01 0.40531951985E+01 0.39606864357E+01
 0.40531927557E+01 0.43218237877E+01 0.47372160864E+01 0.52385067409E+01 0.56404109128E+01
 0.56686895822E+01 0.51205868006E+01 0.39662752629E+01 0.23965172671E+01 0.78690991819E+00
 -.41905672776E+00 -.86622595884E+00 0.14867606069E+01 0.26656523641E+01 0.39662973200E+01
 0.50288499351E+01 0.56152960139E+01 0.56759259264E+01 0.53387740582E+01 0.48369360139E+01
 0.43790359655E+01 0.40440942909E+01 0.38686895428E+01 0.38687059715E+01 0.40441160028E+01
 0.43790242221E+01 0.48369070610E+01 0.53387805920E+01 0.56759681301E+01 0.56153030362E+01
 0.50287913198E+01 0.39662685839E+01 0.26657689950E+01 0.14869734848E+01 0.78690991819E+00
 0.78680051329E+00 0.33799246364E+01 0.42966618772E+01 0.51206101856E+01 0.56152960139E+01
 0.56830735502E+01 0.53845132472E+01 0.48965825978E+01 0.44158936711E+01 0.40329559382E+01
 0.37892598542E+01 0.37059942827E+01 0.37892603346E+01 0.40329465080E+01 0.44158809516E+01
 0.48965929243E+01 0.53845550625E+01 0.56831148560E+01 0.56153011079E+01 0.51205919010E+01
 0.42966713156E+01 0.33799821958E+01 0.26657689950E+01 0.23965172671E+01 0.26657096354E+01
 0.48263838515E+01 0.53490578859E+01 0.56686817347E+01 0.56759259264E+01 0.53845132472E+01
 0.49162858639E+01 0.44335130963E+01 0.40234729194E+01 0.37298952369E+01 0.35779410447E+01
 0.35779314556E+01 0.37298722701E+01 0.40234525518E+01 0.44335148636E+01 0.49163196294E+01
 0.53845676771E+01 0.56759727759E+01 0.56686973902E+01 0.53490423060E+01 0.48263566272E+01
 0.42966713156E+01 0.39662685839E+01 0.39662752629E+01 0.42966914114E+01 0.55952389954E+01
 0.57230907657E+01 0.56403918428E+01 0.53387740582E+01 0.48965825978E+01 0.44335130963E+01
 0.40197175987E+01 0.36978617943E+01 0.34957226943E+01 0.34270578699E+01 0.34957169481E+01
 0.36978484754E+01 0.40196981083E+01 0.44334978700E+01 0.48965864527E+01 0.53387998953E+01
 0.56404236906E+01 0.57231105852E+01 0.55952459372E+01 0.53490423060E+01 0.51205919010E+01
 0.50287913198E+01 0.51205868006E+01 0.53490377254E+01 0.57015071589E+01 0.55434601075E+01
 0.52385030738E+01 0.48369360139E+01 0.44158936711E+01 0.40234729194E+01 0.36978617943E+01
 0.34673321507E+01 0.33485347075E+01 0.33485382208E+01 0.34673375749E+01 0.36978561946E+01
 0.40234446334E+01 0.44158465810E+01 0.48368956620E+01 0.52385003538E+01 0.55435015484E+01
 0.57015645338E+01 0.57231105852E+01 0.56686973902E+01 0.56153011079E+01 0.56153030362E+01
 0.56686895822E+01 0.57230735976E+01 0.53560823326E+01 0.50760445349E+01 0.47372267476E+01
 0.43790359655E+01 0.40329559382E+01 0.37298952369E+01 0.34957226943E+01 0.33485347075E+01
 0.32984219522E+01 0.33485386136E+01 0.34957258955E+01 0.37298896262E+01 0.40329357037E+01
 0.43790055400E+01 0.47372010629E+01 0.50760375123E+01 0.53560943379E+01 0.55435015484E+01
 0.56404236906E+01 0.56759727759E+01 0.56831148560E+01 0.56759681301E+01 0.56404109128E+01
 0.55434830163E+01 0.48576093696E+01 0.46001527798E+01 0.43218331163E+01 0.40440942909E+01
 0.37892598542E+01 0.35779410447E+01 0.34270578699E+01 0.33485382208E+01 0.33485386136E+01
 0.34270600351E+01 0.35779480232E+01 0.37892742889E+01 0.40441115487E+01 0.43218378134E+01
 0.46001298782E+01 0.48575641244E+01 0.50760375123E+01 0.52385003538E+01 0.53387998953E+01
 0.53845676771E+01 0.53845550625E+01 0.53387805920E+01 0.52385067409E+01 0.50760762638E+01
 0.44326736228E+01 0.42458701421E+01 0.40531951985E+01 0.38686895428E+01 0.37059942827E+01
 0.35779314556E+01 0.34957169481E+01 0.34673375749E+01 0.34957258955E+01 0.35779480232E+01
 0.37060148820E+01 0.38687076803E+01 0.40532035935E+01 0.42458655598E+01 0.44326594896E+01
 0.46001298782E+01 0.47372010629E+01 0.48368956620E+01 0.48965864527E+01 0.49163196294E+01
 0.48965929243E+01 0.48369070610E+01 0.47372160864E+01 0.46001468164E+01 0.41558386850E+01
 0.40585221973E+01 0.39606864357E+01 0.38687059715E+01 0.37892603346E+01 0.37298722701E+01
 0.36978484754E+01 0.36978561946E+01 0.37298896262E+01 0.37892742889E+01 0.38687076803E+01
 0.39606816388E+01 0.40585279141E+01 0.41558646422E+01 0.42458655598E+01 0.43218378134E+01
 0.43790055400E+01 0.44158465810E+01 0.44334978700E+01 0.44335148636E+01 0.44158809516E+01
 0.43790242221E+01 0.43218237877E+01 0.42458321770E+01 0.40601589429E+01 0.40585003771E+01
 0.40531927557E+01 0.40441160028E+01 0.40329465080E+01 0.40234525518E+01 0.40196981083E+01
 0.40234446334E+01 0.40329357037E+01 0.40441115487E+01 0.40532035935E+01 0.40585279141E+01
 0.40601937748E+01 0.40585279141E+01 0.40532035935E+01 0.40441115487E+01 0.40329357037E+01
 0.40234446334E+01 0.40196981083E+01 0.40234525518E+01 0.40329465080E+01 0.40441160028E+01
 0.40531927557E+01 0.40585003771E+01 0.41558386850E+01 0.42458321770E+01 0.43218237877E+01
 0.43790242221E+01 0.44158809516E+01 0.44335148636E+01 0.44334978700E+01 0.44158465810E+01
 0.43790055400E+01 0.43218378134E+01 0.42458655598E+01 0.41558646422E+01 0.40585279141E+01
 0.39606816388E+01 0.38687076803E+01 0.37892742889E+01 0.37298896262E+01 0.36978561946E+01
 0.36978484754E+01 0.37298722701E+01 0.37892603346E+01 0.38687059715E+01 0.39606864357E+01
 0.40585221973E+01 0.44326736228E+01 0.46001468164E+01 0.47372160864E+01 0.48369070610E+01
 0.48965929243E+01 0.49163196294E+01 0.48965864527E+01 0.48368956620E+01 0.47372010629E+01
 0.46001298782E+01 0.44326594896E+01 0.42458655598E+01 0.40532035935E+01 0.38687076803E+01
 0.37060148820E+01 0.35779480232E+01 0.34957258955E+01 0.34673375749E+01 0.34957169481E+01
 0.35779314556E+01 0.37059942827E+01 0.38686895428E+01 0.40531951985E+01 0.42458701421E+01
 0.48576093696E+01 0.50760762638E+01 0.52385067409E+01 0.53387805920E+01 0.53845550625E+01
 0.53845676771E+01 0.53387998953E+01 0.52385003538E+01 0.50760375123E+01 0.48575641244E+01
 0.46001298782E+01 0.43218378134E+01 0.40441115487E+01 0.37892742889E+01 0.35779480232E+01
 0.34270600351E+01 0.33485386136E+01 0.33485382208E+01 0.34270578699E+01 0.35779410447E+01
 0.37892598542E+01 0.40440942909E+01 0.43218331163E+01 0.46001527798E+01 0.53560823326E+01
 0.55434830163E+01 0.56404109128E+01 0.56759681301E+01 0.56831148560E+01 0.56759727759E+01
 0.56404236906E+01 0.55435015484E+01 0.53560943379E+01 0.50760375123E+01 0.47372010629E+01
 0.43790055400E+01 0.40329357037E+01 0.37298896262E+01 0.34957258955E+01 0.33485386136E+01
 0.32984219522E+01 0.33485347075E+01 0.34957226943E+01 0.37298952369E+01 0.40329559382E+01
 0.43790359655E+01 0.47372267476E+01 0.50760445349E+01 0.57015071589E+01 0.57230735976E+01
 0.56686895822E+01 0.56153030362E+01 0.56153011079E+01 0.56686973902E+01 0.57231105852E+01
 0.57015645338E+01 0.55435015484E+01 0.52385003538E+01 0.48368956620E+01 0.44158465810E+01
 0.40234446334E+01 0.36978561946E+01 0.34673375749E+01 0.33485382208E+01 0.33485347075E+01
 0.34673321507E+01 0.36978617943E+01 0.40234729194E+01 0.44158936711E+01 0.48369360139E+01
 0.52385030738E+01 0.55434601075E+01 0.55952389954E+01 0.53490377254E+01 0.51205868006E+01
 0.50287913198E+01 0.51205919010E+01 0.53490423060E+01 0.55952459372E+01 0.57231105852E+01
 0.56404236906E+01 0.53387998953E+01 0.48965864527E+01 0.44334978700E+01 0.40196981083E+01
 0.36978484754E+01 0.34957169481E+01 0.34270578699E+01 0.34957226943E+01 0.36978617943E+01
 0.40197175987E+01 0.44335130963E+01 0.48965825978E+01 0.53387740582E+01 0.56403918428E+01
 0.57230907657E+01 0.48263838515E+01 0.42966914114E+01 0.39662752629E+01 0.39662685839E+01
 0.42966713156E+01 0.48263566272E+01 0.53490423060E+01 0.56686973902E+01 0.56759727759E+01
 0.53845676771E+01 0.49163196294E+01 0.44335148636E+01 0.40234525518E+01 0.37298722701E+01
 0.35779314556E+01 0.35779410447E+01 0.37298952369E+01 0.40234729194E+01 0.44335130963E+01
 0.49162858639E+01 0.53845132472E+01 0.56759259264E+01 0.56686817347E+01 0.53490578859E+01
 0.33799246364E+01 0.26657096354E+01 0.23965172671E+01 0.26657689950E+01 0.33799821958E+01
 0.42966713156E+01 0.51205919010E+01 0.56153011079E+01 0.56831148560E+01 0.53845550625E+01
 0.48965929243E+01 0.44158809516E+01 0.40329465080E+01 0.37892603346E+01 0.37059942827E+01
 0.37892598542E+01 0.40329559382E+01 0.44158936711E+01 0.48965825978E+01 0.53845132472E+01
 0.56830735502E+01 0.56152960139E+01 0.51206101856E+01 0.42966618772E+01 0.14867606069E+01
 0.78680051329E+00 0.78690991819E+00 0.14869734848E+01 0.26657689950E+01 0.39662685839E+01
 0.50287913198E+01 0.56153030362E+01 0.56759681301E+01 0.53387805920E+01 0.48369070610E+01
 0.43790242221E+01 0.40441160028E+01 0.38687059715E+01 0.38686895428E+01 0.40440942909E+01
 0.43790359655E+01 0.48369360139E+01 0.53387740582E+01 0.56759259264E+01 0.56152960139E+01
 0.50288499351E+01 0.39662973200E+01 0.26656523641E+01 -.41916568651E+00 -.86622595884E+00
 -.41905672776E+00 0.78690991819E+00 0.23965172671E+01 0.39662752629E+01 0.51205868006E+01
 0.56686895822E+01 0.56404109128E+01 0.52385067409E+01 0.47372160864E+01 0.43218237877E+01
 0.40531927557E+01 0.39606864357E+01 0.40531951985E+01 0.43218331163E+01 0.47372267476E+01
 0.52385030738E+01 0.56403918428E+01 0.56686817347E+01 0.51206101856E+01 0.39662973200E+01
 0.23964737135E+01 0.78679111442E+00 -.18334828285E+01 -.18335178212E+01 -.86622595884E+00
 0.78680051329E+00 0.26657096354E+01 0.42966914114E+01 0.53490377254E+01 0.57230735976E+01
 0.55434830163E+01 0.50760762638E+01 0.46001468164E+01 0.42458321770E+01 0.40585003771E+01
 0.40585221973E+01 0.42458701421E+01 0.46001527798E+01 0.50760445349E+01 0.55434601075E+01
 0.57230907657E+01 0.53490578859E+01 0.42966618772E+01 0.26656523641E+01 0.78679111442E+00
 -.86617425883E+00 -.18336051080E+01 -.86607038367E+00 0.78700894867E+00 0.26658051416E+01
 0.42966865128E+01 0.53490380799E+01 0.57231145458E+01 0.55435098315E+01 0.50760579651E+01
 0.46001320169E+01 0.42458652905E+01 0.40585403733E+01 0.40585041697E+01 0.42458183426E+01
 0.46001550273E+01 0.50761119100E+01 0.55434977117E+01 0.57230473634E+01 0.53490238765E+01
 0.42967349265E+01 0.26657524366E+01 0.78672229013E+00 -.86646283595E+00 -.18337913514E+01
 -.86607038367E+00 0.40973430505E+00 0.21177239682E+01 0.37937229177E+01 0.50429037999E+01
 0.56616841097E+01 0.56754924449E+01 0.52901734876E+01 0.47884754468E+01 0.43693490065E+01
 0.40977253728E+01 0.40040904551E+01 0.40977165414E+01 0.43693542499E+01 0.47884913404E+01
 0.52901638658E+01 0.56754546451E+01 0.56616794277E+01 0.50429609793E+01 0.37937283377E+01
 0.21175043873E+01 0.40929957126E+00 -.86643925496E+00 -.13386221212E+01 0.78700894867E+00
 0.21177239682E+01 0.36015411107E+01 0.48417353229E+01 0.55711940946E+01 0.57253136194E+01
 0.54322215146E+01 0.49364495937E+01 0.44711066777E+01 0.41290157680E+01 0.39493690711E+01
 0.39493794723E+01 0.41290392947E+01 0.44711211714E+01 0.49364342702E+01 0.54321878350E+01
 0.57253050910E+01 0.55712285620E+01 0.48417521481E+01 0.36014405971E+01 0.21174819472E+01
 0.78674033082E+00 0.59911802198E-03 0.71704575075E-03 0.26658051416E+01 0.37937229177E+01
 0.48417353229E+01 0.55305163501E+01 0.57349863126E+01 0.55081229701E+01 0.50366985196E+01
 0.45452714971E+01 0.41504056476E+01 0.38979846540E+01 0.38115371270E+01 0.38979614305E+01
 0.41504082207E+01 0.45453087133E+01 0.50367187256E+01 0.55080985047E+01 0.57349563277E+01
 0.55305163684E+01 0.48417331219E+01 0.37936636324E+01 0.26656945824E+01 0.18001502997E+01
 0.14759581831E+01 0.18002397648E+01 0.42966865128E+01 0.50429037999E+01 0.55711940946E+01
 0.57349863126E+01 0.55312868680E+01 0.50863798315E+01 0.45896218114E+01 0.41622724460E+01
 0.38545578038E+01 0.36948189062E+01 0.36947943313E+01 0.38545231455E+01 0.41622852448E+01
 0.45896708694E+01 0.50864037079E+01 0.55312677587E+01 0.57349739494E+01 0.55712230144E+01
 0.50429313863E+01 0.42966503178E+01 0.35776239014E+01 0.31385386904E+01 0.31385840414E+01
 0.35777085606E+01 0.53490380799E+01 0.56616841097E+01 0.57253136194E+01 0.55081229701E+01
 0.50863798315E+01 0.46043015234E+01 0.41671143229E+01 0.38249228826E+01 0.36093987935E+01
 0.35361112625E+01 0.36093874760E+01 0.38249093451E+01 0.41671107944E+01 0.46043136687E+01
 0.50864037696E+01 0.55081528708E+01 0.57253448518E+01 0.56617044184E+01 0.53490285439E+01
 0.49201168785E+01 0.45573168588E+01 0.44161211516E+01 0.45573559957E+01 0.49201573665E+01
 0.57231145458E+01 0.56754924449E+01 0.54322215146E+01 0.50366985196E+01 0.45896218114E+01
 0.41671143229E+01 0.38143486151E+01 0.35640855155E+01 0.34351083119E+01 0.34351070951E+01
 0.35640789166E+01 0.38143347492E+01 0.41671019031E+01 0.45896238660E+01 0.50367140355E+01
 0.54322326228E+01 0.56754887905E+01 0.57231128932E+01 0.56108134401E+01 0.54358117771E+01
 0.53110092389E+01 0.53109877758E+01 0.54357699100E+01 0.56107894513E+01 0.55435098315E+01
 0.52901734876E+01 0.49364495937E+01 0.45452714971E+01 0.41622724460E+01 0.38249228826E+01
 0.35640855155E+01 0.34004445950E+01 0.33448266685E+01 0.34004407937E+01 0.35640824417E+01
 0.38249216472E+01 0.41622662717E+01 0.45452518754E+01 0.49364174450E+01 0.52901442686E+01
 0.55435059981E+01 0.56695214593E+01 0.56921888390E+01 0.56679648060E+01 0.56522782583E+01
 0.56679213451E+01 0.56921327122E+01 0.56694882307E+01 0.50760579651E+01 0.47884754468E+01
 0.44711066777E+01 0.41504056476E+01 0.38545578038E+01 0.36093987935E+01 0.34351083119E+01
 0.33448266685E+01 0.33448319027E+01 0.34351167467E+01 0.36093987208E+01 0.38545482719E+01
 0.41503949592E+01 0.44710985387E+01 0.47884644673E+01 0.50760398658E+01 0.53039442193E+01
 0.54519795239E+01 0.55283908596E+01 0.55570056541E+01 0.55570059314E+01 0.55283951777E+01
 0.54519928910E+01 0.53039643746E+01 0.46001320169E+01 0.43693490065E+01 0.41290157680E+01
 0.38979846540E+01 0.36948189062E+01 0.35361112625E+01 0.34351070951E+01 0.34004407937E+01
 0.34351167467E+01 0.35361150921E+01 0.36948129886E+01 0.38979876260E+01 0.41290420903E+01
 0.43693800883E+01 0.46001301205E+01 0.48043271280E+01 0.49691637072E+01 0.50856704769E+01
 0.51517718376E+01 0.51727331689E+01 0.51517909301E+01 0.50857181175E+01 0.49692298373E+01
 0.48043751007E+01 0.42458652905E+01 0.40977253728E+01 0.39493690711E+01 0.38115371270E+01
 0.36947943313E+01 0.36093874760E+01 0.35640789166E+01 0.35640824417E+01 0.36093987208E+01
 0.36948129886E+01 0.38115586962E+01 0.39493865182E+01 0.40977344810E+01 0.42458661865E+01
 0.43830074632E+01 0.44994591111E+01 0.45884180874E+01 0.46470793537E+01 0.46758173581E+01
 0.46758309503E+01 0.46471109439E+01 0.45884493149E+01 0.44994785215E+01 0.43830150407E+01
 0.40585403733E+01 0.40040904551E+01 0.39493794723E+01 0.38979614305E+01 0.38545231455E+01
 0.38249093451E+01 0.38143347492E+01 0.38249216472E+01 0.38545482719E+01 0.38979876260E+01
 0.39493865182E+01 0.40040755867E+01 0.40585295208E+01 0.41092203740E+01 0.41521754552E+01
 0.41841282738E+01 0.42042117457E+01 0.42142913628E+01 0.42172205244E+01 0.42143213558E+01
 0.42042319056E+01 0.41841103831E+01 0.41521376398E+01 0.41092014816E+01 0.40585041697E+01
 0.40977165414E+01 0.41290392947E+01 0.41504082207E+01 0.41622852448E+01 0.41671107944E+01
 0.41671019031E+01 0.41622662717E+01 0.41503949592E+01 0.41290420903E+01 0.40977344810E+01
 0.40585295208E+01 0.40147007017E+01 0.39691525519E+01 0.39242730433E+01 0.38832002364E+01
 0.38507761915E+01 0.38326221649E+01 0.38326248720E+01 0.38507814303E+01 0.38832015993E+01
 0.39242653018E+01 0.39691347830E+01 0.40146761190E+01 0.42458183426E+01 0.43693542499E+01
 0.44711211714E+01 0.45453087133E+01 0.45896708694E+01 0.46043136687E+01 0.45896238660E+01
 0.45452518754E+01 0.44710985387E+01 0.43693800883E+01 0.42458661865E+01 0.41092203740E+01
 0.39691525519E+01 0.38350398210E+01 0.37158911043E+01 0.36209072253E+01 0.35591384129E+01
 0.35376358785E+01 0.35591163753E+01 0.36208879629E+01 0.37158960113E+01 0.38350609416E+01
 0.39691587263E+01 0.41091913576E+01 0.46001550273E+01 0.47884913404E+01 0.49364342702E+01
 0.50367187256E+01 0.50864037079E+01 0.50864037696E+01 0.50367140355E+01 0.49364174450E+01
 0.47884644673E+01 0.46001301205E+01 0.43830074632E+01 0.41521754552E+01 0.39242730433E+01
 0.37158911043E+01 0.35425833915E+01 0.34180323463E+01 0.33528122937E+01 0.33528043562E+01
 0.34180148356E+01 0.35425676007E+01 0.37158816599E+01 0.39242683461E+01 0.41521767859E+01
 0.43830203714E+01 0.50761119100E+01 0.52901638658E+01 0.54321878350E+01 0.55080985047E+01
 0.55312677587E+01 0.55081528708E+01 0.54322326228E+01 0.52901442686E+01 0.50760398658E+01
 0.48043271280E+01 0.44994591111E+01 0.41841282738E+01 0.38832002364E+01 0.36209072253E+01
 0.34180323463E+01 0.32900556293E+01 0.32463556041E+01 0.32900549519E+01 0.34180295748E+01
 0.36208964367E+01 0.38831791383E+01 0.41841136047E+01 0.44994811075E+01 0.48043939288E+01
 0.55434977117E+01 0.56754546451E+01 0.57253050910E+01 0.57349563277E+01 0.57349739494E+01
 0.57253448518E+01 0.56754887905E+01 0.55435059981E+01 0.53039442193E+01 0.49691637072E+01
 0.45884180874E+01 0.42042117457E+01 0.38507761915E+01 0.35591384129E+01 0.33528122937E+01
 0.32463556041E+01 0.32463543948E+01 0.33528097055E+01 0.35591382335E+01 0.38507845513E+01
 0.42042331686E+01 0.45884506015E+01 0.49691971288E+01 0.53039631095E+01 0.57230473634E+01
 0.56616794277E+01 0.55712285620E+01 0.55305163684E+01 0.55712230144E+01 0.56617044184E+01
 0.57231128932E+01 0.56695214593E+01 0.54519795239E+01 0.50856704769E+01 0.46470793537E+01
 0.42142913628E+01 0.38326221649E+01 0.35376358785E+01 0.33528043562E+01 0.32900549519E+01
 0.33528097055E+01 0.35376366617E+01 0.38326226308E+01 0.42143144514E+01 0.46471328666E+01
 0.50857195207E+01 0.54519754370E+01 0.56694609757E+01 0.53490238765E+01 0.50429609793E+01
 0.48417521481E+01 0.48417331219E+01 0.50429313863E+01 0.53490285439E+01 0.56108134401E+01
 0.56921888390E+01 0.55283908596E+01 0.51517718376E+01 0.46758173581E+01 0.42172205244E+01
 0.38326248720E+01 0.35591163753E+01 0.34180148356E+01 0.34180295748E+01 0.35591382335E+01
 0.38326226308E+01 0.42172041969E+01 0.46758219137E+01 0.51517992858E+01 0.55284019432E+01
 0.56921598261E+01 0.56107740348E+01 0.42967349265E+01 0.37937283377E+01 0.36014405971E+01
 0.37936636324E+01 0.42966503178E+01 0.49201168785E+01 0.54358117771E+01 0.56679648060E+01
 0.55570056541E+01 0.51727331689E+01 0.46758309503E+01 0.42143213558E+01 0.38507814303E+01
 0.36208879629E+01 0.35425676007E+01 0.36208964367E+01 0.38507845513E+01 0.42143144514E+01
 0.46758219137E+01 0.51727218504E+01 0.55569821781E+01 0.56679362404E+01 0.54358107495E+01
 0.49201679884E+01 0.26657524366E+01 0.21175043873E+01 0.21174819472E+01 0.26656945824E+01
 0.35776239014E+01 0.45573168588E+01 0.53110092389E+01 0.56522782583E+01 0.55570059314E+01
 0.51517909301E+01 0.46471109439E+01 0.42042319056E+01 0.38832015993E+01 0.37158960113E+01
 0.37158816599E+01 0.38831791383E+01 0.42042331686E+01 0.46471328666E+01 0.51517992858E+01
 0.55569821781E+01 0.56522451593E+01 0.53110056356E+01 0.45573578748E+01 0.35776903949E+01
 0.78672229013E+00 0.40929957126E+00 0.78674033082E+00 0.18001502997E+01 0.31385386904E+01
 0.44161211516E+01 0.53109877758E+01 0.56679213451E+01 0.55283951777E+01 0.50857181175E+01
 0.45884493149E+01 0.41841103831E+01 0.39242653018E+01 0.38350609416E+01 0.39242683461E+01
 0.41841136047E+01 0.45884506015E+01 0.50857195207E+01 0.55284019432E+01 0.56679362404E+01
 0.53110056356E+01 0.44161302931E+01 0.31385305075E+01 0.18001290804E+01 -.86646283595E+00
 -.86643925496E+00 0.59911802198E-03 0.14759581831E+01 0.31385840414E+01 0.45573559957E+01
 0.54357699100E+01 0.56921327122E+01 0.54519928910E+01 0.49692298373E+01 0.44994785215E+01
 0.41521376398E+01 0.39691347830E+01 0.39691587263E+01 0.41521767859E+01 0.44994811075E+01
 0.49691971288E+01 0.54519754370E+01 0.56921598261E+01 0.54358107495E+01 0.45573578748E+01
 0.31385305075E+01 0.14758786938E+01 0.53509715062E-03 -.18337913514E+01 -.13386221212E+01
 0.71704575076E-03 0.18002397648E+01 0.35777085606E+01 0.49201573665E+01 0.56107894513E+01
 0.56694882307E+01 0.53039643746E+01 0.48043751007E+01 0.43830150407E+01 0.41092014816E+01
 0.40146761190E+01 0.41091913576E+01 0.43830203714E+01 0.48043939288E+01 0.53039631095E+01
 0.56694609757E+01 0.56107740348E+01 0.49201679884E+01 0.35776903949E+01 0.18001290804E+01
 0.53509715062E-03 -.13387647471E+01 -.41935028696E+00 0.78674566394E+00 0.23965573164E+01
 0.39664047111E+01 0.51206615077E+01 0.56686924581E+01 0.56404141082E+01 0.52385412304E+01
 0.47372476805E+01 0.43218308153E+01 0.40531958943E+01 0.39606988351E+01 0.40531985589E+01
 0.43218194696E+01 0.47372237742E+01 0.52385335616E+01 0.56404318457E+01 0.56686883856E+01
 0.51205884523E+01 0.39663118800E+01 0.23965685892E+01 0.78690020814E+00 -.41918736310E+00
 -.86644411014E+00 0.78674566394E+00 0.21176285652E+01 0.36016225636E+01 0.48418521941E+01
 0.55712334786E+01 0.57253004503E+01 0.54322341885E+01 0.49364955073E+01 0.44711354648E+01
 0.41290128524E+01 0.39493680855E+01 0.39493948150E+01 0.41290472624E+01 0.44711131715E+01
 0.49364386152E+01 0.54322209894E+01 0.57253385136E+01 0.55712318036E+01 0.48417494054E+01
 0.36014895036E+01 0.21175855362E+01 0.78680134892E+00 0.49862229053E-03 0.45619885756E-03
 0.23965573164E+01 0.36016225636E+01 0.47316609063E+01 0.54918791922E+01 0.57473532915E+01
 0.55482538398E+01 0.50846077359E+01 0.45899404776E+01 0.41909941219E+01 0.39355477282E+01
 0.38480220054E+01 0.39355562688E+01 0.41909902880E+01 0.45899219651E+01 0.50846011877E+01
 0.55482703046E+01 0.57473546745E+01 0.54918167185E+01 0.47315422931E+01 0.36015135479E+01
 0.23965087913E+01 0.14757751739E+01 0.11314727022E+01 0.14757781981E+01 0.39664047111E+01
 0.48418521941E+01 0.54918791922E+01 0.57488411055E+01 0.56000360061E+01 0.51736257259E+01
 0.46715174302E+01 0.42353937401E+01 0.39203130494E+01 0.37564830224E+01 0.37564688958E+01
 0.39202907642E+01 0.42353944818E+01 0.46715421174E+01 0.51736490146E+01 0.56000342991E+01
 0.57488018147E+01 0.54918029217E+01 0.48417640023E+01 0.39663440920E+01 0.31384740292E+01
 0.26369809276E+01 0.26369811197E+01 0.31384928370E+01 0.51206615077E+01 0.55712334786E+01
 0.57473532915E+01 0.56000360061E+01 0.52030034097E+01 0.47128023050E+01 0.42614130275E+01
 0.39064820576E+01 0.36824608314E+01 0.36062306650E+01 0.36824617131E+01 0.39064833504E+01
 0.42614122055E+01 0.47127995393E+01 0.52030056576E+01 0.56000468785E+01 0.57473593560E+01
 0.55712117851E+01 0.51206051737E+01 0.45573166256E+01 0.40964345620E+01 0.39192781822E+01
 0.40964815306E+01 0.45573859275E+01 0.56686924581E+01 0.57253004503E+01 0.55482538398E+01
 0.51736257259E+01 0.47128023050E+01 0.42699145037E+01 0.38981257451E+01 0.36338340752E+01
 0.34975886316E+01 0.34975998030E+01 0.36338494973E+01 0.38981169513E+01 0.42698822561E+01
 0.47127764787E+01 0.51736327712E+01 0.55482929736E+01 0.57253427142E+01 0.56686973280E+01
 0.54357916580E+01 0.51544979997E+01 0.49674572081E+01 0.49674935955E+01 0.51545737817E+01
 0.54358429816E+01 0.56404141082E+01 0.54322341885E+01 0.50846077359E+01 0.46715174302E+01
 0.42614130275E+01 0.38981257451E+01 0.36168462710E+01 0.34405263793E+01 0.33806630344E+01
 0.34405250385E+01 0.36168470500E+01 0.38981252958E+01 0.42614001052E+01 0.46714880262E+01
 0.50845767243E+01 0.54322241919E+01 0.56404324167E+01 0.56921889363E+01 0.56330059664E+01
 0.55453836188E+01 0.55058773927E+01 0.55453720647E+01 0.56329804691E+01 0.56921570834E+01
 0.52385412304E+01 0.49364955073E+01 0.45899404776E+01 0.42353937401E+01 0.39064820576E+01
 0.36338340752E+01 0.34405263793E+01 0.33406996871E+01 0.33406953574E+01 0.34405272273E+01
 0.36338555812E+01 0.39065047257E+01 0.42353764942E+01 0.45898716178E+01 0.49364143392E+01
 0.52385032262E+01 0.54519856489E+01 0.55649668443E+01 0.56025622913E+01 0.56061963677E+01
 0.56061690221E+01 0.56024942346E+01 0.55648960335E+01 0.54519576594E+01 0.47372476805E+01
 0.44711354648E+01 0.41909941219E+01 0.39203130494E+01 0.36824608314E+01 0.34975886316E+01
 0.33806630344E+01 0.33406953574E+01 0.33806703849E+01 0.34976007734E+01 0.36824720826E+01
 0.39203139372E+01 0.41909750012E+01 0.44710960094E+01 0.47372025567E+01 0.49691665929E+01
 0.51488864118E+01 0.52651042782E+01 0.53250148442E+01 0.53427333064E+01 0.53250017455E+01
 0.52650911472E+01 0.51488908173E+01 0.49691964673E+01 0.43218308153E+01 0.41290128524E+01
 0.39355477282E+01 0.37564830224E+01 0.36062306650E+01 0.34975998030E+01 0.34405250385E+01
 0.34405272273E+01 0.34976007734E+01 0.36062256608E+01 0.37564828679E+01 0.39355666851E+01
 0.41290420258E+01 0.43218380989E+01 0.44994588326E+01 0.46497043306E+01 0.47644472780E+01
 0.48403129435E+01 0.48773385777E+01 0.48773427873E+01 0.48403353748E+01 0.47644980080E+01
 0.46497657023E+01 0.44994942602E+01 0.40531958943E+01 0.39493680855E+01 0.38480220054E+01
 0.37564688958E+01 0.36824617131E+01 0.36338494973E+01 0.36168470500E+01 0.36338555812E+01
 0.36824720826E+01 0.37564828679E+01 0.38480400180E+01 0.39493872024E+01 0.40532074917E+01
 0.41521764030E+01 0.42390793712E+01 0.43080920693E+01 0.43563134040E+01 0.43839958340E+01
 0.43929096197E+01 0.43840087236E+01 0.43563376807E+01 0.43081209157E+01 0.42391008760E+01
 0.41521811309E+01 0.39606988351E+01 0.39493948150E+01 0.39355562688E+01 0.39202907642E+01
 0.39064833504E+01 0.38981169513E+01 0.38981252958E+01 0.39065047257E+01 0.39203139372E+01
 0.39355666851E+01 0.39493872024E+01 0.39606863944E+01 0.39691562642E+01 0.39740595894E+01
 0.39743745371E+01 0.39702300564E+01 0.39639765548E+01 0.39594061399E+01 0.39594158994E+01
 0.39639912846E+01 0.39702253545E+01 0.39743481544E+01 0.39740344322E+01 0.39691523714E+01
 0.40531985589E+01 0.41290472624E+01 0.41909902880E+01 0.42353944818E+01 0.42614122055E+01
 0.42698822561E+01 0.42614001052E+01 0.42353764942E+01 0.41909750012E+01 0.41290420258E+01
 0.40532074917E+01 0.39691562642E+01 0.38828666871E+01 0.37995666216E+01 0.37242559355E+01
 0.36628297924E+01 0.36220488666E+01 0.36076881647E+01 0.36220516868E+01 0.36628296907E+01
 0.37242459225E+01 0.37995448946E+01 0.38828395999E+01 0.39691344005E+01 0.43218194696E+01
 0.44711131715E+01 0.45899219651E+01 0.46715421174E+01 0.47127995393E+01 0.47127764787E+01
 0.46714880262E+01 0.45898716178E+01 0.44710960094E+01 0.43218380989E+01 0.41521764030E+01
 0.39740595894E+01 0.37995666216E+01 0.36401433745E+01 0.35067937221E+01 0.34101002457E+01
 0.33590747604E+01 0.33590675865E+01 0.34100867181E+01 0.35067881324E+01 0.36401482145E+01
 0.37995676034E+01 0.39740419020E+01 0.41521453352E+01 0.47372237742E+01 0.49364386152E+01
 0.50846011877E+01 0.51736490146E+01 0.52030056576E+01 0.51736327712E+01 0.50845767243E+01
 0.49364143392E+01 0.47372025567E+01 0.44994588326E+01 0.42390793712E+01 0.39743745371E+01
 0.37242559355E+01 0.35067937221E+01 0.33380848274E+01 0.32311104013E+01 0.31944438623E+01
 0.32311016434E+01 0.33380703723E+01 0.35067799758E+01 0.37242502149E+01 0.39743802194E+01
 0.42390938840E+01 0.44994775358E+01 0.52385335616E+01 0.54322209894E+01 0.55482703046E+01
 0.56000342991E+01 0.56000468785E+01 0.55482929736E+01 0.54322241919E+01 0.52385032262E+01
 0.49691665929E+01 0.46497043306E+01 0.43080920693E+01 0.39702300564E+01 0.36628297924E+01
 0.34101002457E+01 0.32311104013E+01 0.31385243370E+01 0.31385226867E+01 0.32311047987E+01
 0.34100898950E+01 0.36628175004E+01 0.39702257838E+01 0.43081090169E+01 0.46497458283E+01
 0.49692162125E+01 0.56404318457E+01 0.57253385136E+01 0.57473546745E+01 0.57488018147E+01
 0.57473593560E+01 0.57253427142E+01 0.56404324167E+01 0.54519856489E+01 0.51488864118E+01
 0.47644472780E+01 0.43563134040E+01 0.39639765548E+01 0.36220488666E+01 0.33590747604E+01
 0.31944438623E+01 0.31385226867E+01 0.31944413335E+01 0.33590749598E+01 0.36220570907E+01
 0.39639919882E+01 0.43563290502E+01 0.47644571423E+01 0.51488908173E+01 0.54519875940E+01
 0.56686883856E+01 0.55712318036E+01 0.54918167185E+01 0.54918029217E+01 0.55712117851E+01
 0.56686973280E+01 0.56921889363E+01 0.55649668443E+01 0.52651042782E+01 0.48403129435E+01
 0.43839958340E+01 0.39594061399E+01 0.36076881647E+01 0.33590675865E+01 0.32311016434E+01
 0.32311047987E+01 0.33590749598E+01 0.36076972592E+01 0.39594187139E+01 0.43840128020E+01
 0.48403237149E+01 0.52650905320E+01 0.55649261390E+01 0.56921483142E+01 0.51205884523E+01
 0.48417494054E+01 0.47315422931E+01 0.48417640023E+01 0.51206051737E+01 0.54357916580E+01
 0.56330059664E+01 0.56025622913E+01 0.53250148442E+01 0.48773385777E+01 0.43929096197E+01
 0.39594158994E+01 0.36220516868E+01 0.34100867181E+01 0.33380703723E+01 0.34100898950E+01
 0.36220570907E+01 0.39594187139E+01 0.43929032025E+01 0.48773223442E+01 0.53249972318E+01
 0.56025519430E+01 0.56330010828E+01 0.54357825838E+01 0.39663118800E+01 0.36014895036E+01
 0.36015135479E+01 0.39663440920E+01 0.45573166256E+01 0.51544979997E+01 0.55453836188E+01
 0.56061963677E+01 0.53427333064E+01 0.48773427873E+01 0.43840087236E+01 0.39639912846E+01
 0.36628296907E+01 0.35067881324E+01 0.35067799758E+01 0.36628175004E+01 0.39639919882E+01
 0.43840128020E+01 0.48773223442E+01 0.53426885670E+01 0.56061726828E+01 0.55454170386E+01