   1   1   0   0
  0.1987675E+02  0.3040559E-09  0.3040559E-09  0.3040559E-09  0.5000000E-15
  1.000000000000000E-004
  CAR 
 diamond Si                              
     29.73304902     -5.74809047  301     10.45098789      1.00000000
     -5.748  0.0000E+00  0.0000E+00
     -5.630  0.0000E+00  0.0000E+00
     -5.512  0.0000E+00  0.0000E+00
     -5.393  0.0000E+00  0.0000E+00
     -5.275  0.0000E+00  0.0000E+00
     -5.157  0.0000E+00  0.0000E+00
     -5.038  0.0000E+00  0.0000E+00
     -4.920  0.0000E+00  0.0000E+00
     -4.802  0.0000E+00  0.0000E+00
     -4.684  0.1128E-16  0.1335E-17
     -4.565  0.1506E-11  0.1782E-12
     -4.447  0.1316E-07  0.1556E-08
     -4.329  0.7865E-05  0.9317E-06
     -4.211  0.3570E-03  0.4316E-04
     -4.092  0.1530E-02  0.2241E-03
     -3.974  0.3161E-02  0.5980E-03
     -3.856  0.1529E-01  0.2407E-02
     -3.737  0.1506E-01  0.4187E-02
     -3.619  0.3458E-02  0.4596E-02
     -3.501  0.1134E-01  0.5937E-02
     -3.383  0.1724E-01  0.7976E-02
     -3.264  0.2402E-01  0.1082E-01
     -3.146  0.4357E-01  0.1597E-01
     -3.028  0.1414E-01  0.1764E-01
     -2.910  0.2781E-02  0.1797E-01
     -2.791  0.8969E-02  0.1903E-01
     -2.673  0.1160E-01  0.2040E-01
     -2.555  0.4929E-01  0.2623E-01
     -2.437  0.5457E-01  0.3269E-01
     -2.318  0.1221E-01  0.3413E-01
     -2.200  0.2322E-01  0.3688E-01
     -2.082  0.3348E-01  0.4084E-01
     -1.963  0.3281E-01  0.4472E-01
     -1.845  0.4399E-01  0.4992E-01
     -1.727  0.7336E-02  0.5079E-01
     -1.609  0.4675E-02  0.5134E-01
     -1.490  0.1830E-01  0.5351E-01
     -1.372  0.2477E-01  0.5644E-01
     -1.254  0.9212E-01  0.6733E-01
     -1.136  0.7718E-01  0.7646E-01
     -1.017  0.1371E-01  0.7808E-01
     -0.899  0.2580E-01  0.8113E-01
     -0.781  0.3169E-01  0.8488E-01
     -0.662  0.3412E-01  0.8892E-01
     -0.544  0.6368E-01  0.9645E-01
     -0.426  0.2443E-01  0.9934E-01
     -0.308  0.5529E-02  0.9999E-01
     -0.189  0.1280E-01  0.1015E+00
     -0.071  0.2764E-01  0.1048E+00
      0.047  0.9406E-01  0.1159E+00
      0.165  0.5818E-01  0.1228E+00
      0.284  0.1446E-01  0.1245E+00
      0.402  0.6174E-01  0.1318E+00
      0.520  0.5961E-01  0.1388E+00
      0.639  0.9406E-01  0.1500E+00
      0.757  0.7487E-01  0.1588E+00
      0.875  0.6569E-02  0.1596E+00
      0.993  0.4503E-02  0.1601E+00
      1.112  0.9726E-02  0.1613E+00
      1.230  0.2679E-01  0.1645E+00
      1.348  0.9277E-01  0.1754E+00
      1.466  0.5947E-01  0.1825E+00
      1.585  0.1705E-01  0.1845E+00
      1.703  0.5358E-01  0.1908E+00
      1.821  0.4578E-01  0.1962E+00
      1.939  0.1020E+00  0.2083E+00
      2.058  0.7212E-01  0.2168E+00
      2.176  0.1158E-01  0.2182E+00
      2.294  0.2759E-01  0.2215E+00
      2.413  0.3946E-01  0.2261E+00
      2.531  0.1091E+00  0.2390E+00
      2.649  0.1468E+00  0.2564E+00
      2.767  0.4495E-01  0.2617E+00
      2.886  0.3524E-01  0.2659E+00
      3.004  0.2164E-01  0.2684E+00
      3.122  0.3657E-01  0.2728E+00
      3.240  0.6985E-01  0.2810E+00
      3.359  0.1644E-01  0.2830E+00
      3.477  0.2362E-01  0.2858E+00
      3.595  0.3202E-01  0.2896E+00
      3.714  0.2822E-01  0.2929E+00
      3.832  0.1090E+00  0.3058E+00
      3.950  0.1050E+00  0.3182E+00
      4.068  0.5210E-01  0.3244E+00
      4.187  0.1076E+00  0.3371E+00
      4.305  0.5374E-01  0.3434E+00
      4.423  0.9022E-01  0.3541E+00
      4.541  0.1214E+00  0.3685E+00
      4.660  0.4054E-01  0.3733E+00
      4.778  0.2456E-02  0.3736E+00
      4.896  0.3404E-03  0.3736E+00
      5.015  0.1936E-01  0.3759E+00
      5.133  0.1361E+00  0.3920E+00
      5.251  0.1551E+00  0.4103E+00
      5.369  0.9033E-01  0.4210E+00
      5.488  0.5187E-01  0.4271E+00
      5.606  0.9290E-02  0.4282E+00
      5.724  0.3423E-01  0.4323E+00
      5.842  0.4741E-01  0.4379E+00
      5.961  0.4176E-01  0.4428E+00
      6.079  0.2337E-01  0.4456E+00
      6.197  0.2715E-01  0.4488E+00
      6.315  0.1123E+00  0.4621E+00
      6.434  0.1695E+00  0.4821E+00
      6.552  0.7201E-01  0.4906E+00
      6.670  0.6169E-01  0.4979E+00
      6.789  0.7745E-01  0.5071E+00
      6.907  0.9599E-01  0.5184E+00
      7.025  0.1519E+00  0.5364E+00
      7.143  0.7449E-01  0.5452E+00
      7.262  0.2474E-01  0.5482E+00
      7.380  0.4214E-01  0.5531E+00
      7.498  0.3157E-01  0.5569E+00
      7.616  0.4626E-01  0.5623E+00
      7.735  0.7925E-01  0.5717E+00
      7.853  0.7324E-01  0.5804E+00
      7.971  0.1089E+00  0.5933E+00
      8.090  0.8590E-01  0.6034E+00
      8.208  0.1019E+00  0.6155E+00
      8.326  0.3199E-01  0.6193E+00
      8.444  0.5781E-02  0.6199E+00
      8.563  0.3252E-01  0.6238E+00
      8.681  0.4094E-01  0.6286E+00
      8.799  0.7978E-01  0.6381E+00
      8.917  0.1819E+00  0.6596E+00
      9.036  0.1865E+00  0.6816E+00
      9.154  0.1000E+00  0.6935E+00
      9.272  0.2333E-01  0.6962E+00
      9.391  0.7009E-01  0.7045E+00
      9.509  0.1097E+00  0.7175E+00
      9.627  0.4943E-01  0.7233E+00
      9.745  0.6731E-02  0.7241E+00
      9.864  0.2878E-01  0.7275E+00
      9.982  0.1194E+00  0.7416E+00
     10.100  0.1993E+00  0.7652E+00
     10.218  0.1127E+00  0.7785E+00
     10.337  0.7391E-01  0.7873E+00
     10.455  0.1110E+00  0.8004E+00
     10.573  0.8180E-01  0.8101E+00
     10.692  0.7423E-01  0.8189E+00
     10.810  0.6746E-01  0.8268E+00
     10.928  0.1898E-01  0.8291E+00
     11.046  0.1241E-01  0.8306E+00
     11.165  0.3912E-02  0.8310E+00
     11.283  0.2752E-01  0.8343E+00
     11.401  0.1566E+00  0.8528E+00
     11.519  0.2081E+00  0.8774E+00
     11.638  0.1359E+00  0.8935E+00
     11.756  0.7484E-01  0.9023E+00
     11.874  0.1258E+00  0.9172E+00
     11.992  0.1279E+00  0.9323E+00
     12.111  0.4386E-01  0.9375E+00
     12.229  0.4779E-01  0.9432E+00
     12.347  0.8102E-01  0.9528E+00
     12.466  0.5572E-01  0.9593E+00
     12.584  0.1109E+00  0.9725E+00
     12.702  0.1641E+00  0.9919E+00
     12.820  0.1231E+00  0.1006E+01
     12.939  0.9908E-01  0.1018E+01
     13.057  0.1141E+00  0.1032E+01
     13.175  0.1178E+00  0.1046E+01
     13.293  0.8415E-01  0.1056E+01
     13.412  0.7068E-01  0.1064E+01
     13.530  0.3277E-01  0.1068E+01
     13.648  0.8823E-01  0.1078E+01
     13.767  0.1637E+00  0.1098E+01
     13.885  0.1071E+00  0.1110E+01
     14.003  0.8364E-01  0.1120E+01
     14.121  0.6129E-01  0.1127E+01
     14.240  0.8796E-01  0.1138E+01
     14.358  0.1595E+00  0.1157E+01
     14.476  0.1494E+00  0.1174E+01
     14.594  0.4276E-01  0.1179E+01
     14.713  0.7589E-01  0.1188E+01
     14.831  0.1690E+00  0.1208E+01
     14.949  0.1388E+00  0.1225E+01
     15.068  0.1875E+00  0.1247E+01
     15.186  0.9402E-01  0.1258E+01
     15.304  0.3518E-01  0.1262E+01
     15.422  0.1059E+00  0.1275E+01
     15.541  0.7060E-01  0.1283E+01
     15.659  0.6890E-01  0.1291E+01
     15.777  0.2851E-01  0.1295E+01
     15.895  0.7237E-02  0.1295E+01
     16.014  0.6413E-01  0.1303E+01
     16.132  0.1978E+00  0.1326E+01
     16.250  0.2042E+00  0.1351E+01
     16.368  0.7969E-01  0.1360E+01
     16.487  0.1293E+00  0.1375E+01
     16.605  0.8698E-01  0.1386E+01
     16.723  0.5641E-01  0.1392E+01
     16.842  0.8813E-01  0.1403E+01
     16.960  0.1245E+00  0.1417E+01
     17.078  0.6579E-01  0.1425E+01
     17.196  0.8517E-01  0.1435E+01
     17.315  0.8324E-01  0.1445E+01
     17.433  0.6885E-01  0.1453E+01
     17.551  0.1043E+00  0.1466E+01
     17.669  0.1467E+00  0.1483E+01
     17.788  0.1636E+00  0.1502E+01
     17.906  0.1077E+00  0.1515E+01
     18.024  0.4747E-01  0.1521E+01
     18.143  0.3284E-01  0.1525E+01
     18.261  0.5713E-01  0.1531E+01
     18.379  0.5632E-01  0.1538E+01
     18.497  0.5082E-01  0.1544E+01
     18.616  0.7974E-01  0.1553E+01
     18.734  0.1493E+00  0.1571E+01
     18.852  0.1801E+00  0.1592E+01
     18.970  0.1179E+00  0.1606E+01
     19.089  0.4467E-01  0.1612E+01
     19.207  0.1335E+00  0.1627E+01
     19.325  0.1574E+00  0.1646E+01
     19.444  0.1783E+00  0.1667E+01
     19.562  0.1680E+00  0.1687E+01
     19.680  0.4504E-01  0.1692E+01
     19.798  0.3715E-01  0.1697E+01
     19.917  0.3061E-01  0.1700E+01
     20.035  0.1047E+00  0.1713E+01
     20.153  0.1444E+00  0.1730E+01
     20.271  0.2181E+00  0.1756E+01
     20.390  0.2147E+00  0.1781E+01
     20.508  0.1050E+00  0.1793E+01
     20.626  0.1108E+00  0.1806E+01
     20.744  0.8715E-01  0.1817E+01
     20.863  0.2351E-01  0.1820E+01
     20.981  0.5488E-01  0.1826E+01
     21.099  0.8582E-01  0.1836E+01
     21.218  0.8972E-01  0.1847E+01
     21.336  0.1192E+00  0.1861E+01
     21.454  0.5858E-01  0.1868E+01
     21.572  0.5174E-01  0.1874E+01
     21.691  0.1908E+00  0.1896E+01
     21.809  0.2715E+00  0.1929E+01
     21.927  0.1553E+00  0.1947E+01
     22.045  0.8134E-01  0.1957E+01
     22.164  0.8091E-01  0.1966E+01
     22.282  0.9171E-01  0.1977E+01
     22.400  0.1166E+00  0.1991E+01
     22.519  0.1190E+00  0.2005E+01
     22.637  0.8352E-01  0.2015E+01
     22.755  0.7954E-01  0.2024E+01
     22.873  0.1195E+00  0.2038E+01
     22.992  0.1429E+00  0.2055E+01
     23.110  0.8627E-01  0.2065E+01
     23.228  0.9334E-01  0.2076E+01
     23.346  0.1297E+00  0.2092E+01
     23.465  0.2498E+00  0.2121E+01
     23.583  0.2220E+00  0.2148E+01
     23.701  0.1065E+00  0.2160E+01
     23.820  0.7381E-01  0.2169E+01
     23.938  0.8227E-01  0.2179E+01
     24.056  0.1263E+00  0.2194E+01
     24.174  0.1080E+00  0.2206E+01
     24.293  0.1643E-01  0.2208E+01
     24.411  0.1606E-01  0.2210E+01
     24.529  0.8524E-01  0.2220E+01
     24.647  0.1281E+00  0.2235E+01
     24.766  0.1640E+00  0.2255E+01
     24.884  0.1061E+00  0.2267E+01
     25.002  0.1413E+00  0.2284E+01
     25.121  0.1792E+00  0.2305E+01
     25.239  0.7978E-01  0.2315E+01
     25.357  0.1023E-01  0.2316E+01
     25.475  0.2971E-01  0.2319E+01
     25.594  0.7474E-01  0.2328E+01
     25.712  0.9994E-01  0.2340E+01
     25.830  0.2260E-01  0.2343E+01
     25.948  0.5106E-01  0.2349E+01
     26.067  0.1334E+00  0.2365E+01
     26.185  0.7524E-01  0.2373E+01
     26.303  0.1088E-01  0.2375E+01
     26.421  0.3792E-02  0.2375E+01
     26.540  0.2954E-01  0.2379E+01
     26.658  0.2557E-01  0.2382E+01
     26.776  0.2266E-02  0.2382E+01
     26.895  0.1684E-04  0.2382E+01
     27.013  0.9003E-08  0.2382E+01
     27.131  0.1085E-11  0.2382E+01
     27.249  0.1476E-07  0.2382E+01
     27.368  0.1921E-04  0.2382E+01
     27.486  0.1870E-02  0.2382E+01
     27.604  0.1922E-01  0.2384E+01
     27.722  0.4392E-01  0.2390E+01
     27.841  0.2463E-01  0.2393E+01
     27.959  0.2489E-02  0.2393E+01
     28.077  0.1588E-01  0.2395E+01
     28.196  0.3567E-01  0.2399E+01
     28.314  0.8567E-02  0.2400E+01
     28.432  0.1888E-03  0.2400E+01
     28.550  0.3158E-06  0.2400E+01
     28.669  0.3615E-10  0.2400E+01
     28.787  0.2708E-15  0.2400E+01
     28.905  0.0000E+00  0.2400E+01
     29.023  0.0000E+00  0.2400E+01
     29.142  0.0000E+00  0.2400E+01
     29.260  0.0000E+00  0.2400E+01
     29.378  0.0000E+00  0.2400E+01
     29.497  0.0000E+00  0.2400E+01
     29.615  0.0000E+00  0.2400E+01
     29.733  0.0000E+00  0.2400E+01
