    1    1    5    1
  0.1987675E+02  0.3040559E-09  0.3040559E-09  0.3040559E-09  0.5000000E-15
  1.000000000000000E-004
  CAR 
 diamond Si                              
      4     56      6
 
  0.0000000E+00  0.0000000E+00  0.0000000E+00  0.7513148E-03
    1       -4.135311
    2       21.898432
    3       21.898439
    4       21.898439
    5       22.627200
    6       22.627217
 
  0.9090909E-01  0.0000000E+00  0.0000000E+00  0.6010518E-02
    1       -3.890206
    2       18.668477
    3       20.898632
    4       20.898650
    5       23.911648
    6       23.926093
 
  0.1818182E+00  0.0000000E+00  0.0000000E+00  0.6010518E-02
    1       -3.156670
    2       14.732776
    3       19.979509
    4       19.979527
    5       24.021445
    6       24.917125
 
  0.2727273E+00  0.0000000E+00  0.0000000E+00  0.6010518E-02
    1       -1.940518
    2       10.977466
    3       19.434377
    4       19.434394
    5       23.823402
    6       23.906277
 
  0.3636364E+00  0.0000000E+00  0.0000000E+00  0.6010518E-02
    1       -0.251955
    2        7.555302
    3       19.236652
    4       19.236665
    5       22.494465
    6       22.494524
 
  0.4545455E+00  0.0000000E+00  0.0000000E+00  0.6010518E-02
    1        1.882061
    2        4.548208
    3       19.260940
    4       19.260947
    5       21.658491
    6       21.658551
 
  0.9090909E-01  0.9090909E-01  0.0000000E+00  0.4507889E-02
    1       -3.808550
    2       19.502120
    3       19.502135
    4       21.118068
    5       21.180493
    6       25.426298
 
  0.1818182E+00  0.9090909E-01  0.0000000E+00  0.1803156E-01
    1       -3.237929
    2       16.188059
    3       18.456256
    4       20.239081
    5       22.041641
    6       24.746800
 
  0.2727273E+00  0.9090909E-01  0.0000000E+00  0.1803156E-01
    1       -2.182881
    2       12.384270
    3       17.815044
    4       19.447753
    5       21.634937
    6       25.116354
 
  0.3636364E+00  0.9090909E-01  0.0000000E+00  0.1803156E-01
    1       -0.651879
    2        8.853728
    3       17.586024
    4       18.650382
    5       20.653049
    6       24.900318
 
  0.4545455E+00  0.9090909E-01  0.0000000E+00  0.1803156E-01
    1        1.338405
    2        5.704578
    3       17.704284
    4       17.760428
    5       20.505534
    6       23.693917
 
 -0.4545455E+00  0.9090909E-01  0.0000000E+00  0.1803156E-01
    1        2.857463
    2        3.894594
    3       16.907128
    4       18.318680
    5       21.040084
    6       22.894168
 
 -0.3636364E+00  0.9090909E-01  0.0000000E+00  0.1803156E-01
    1        0.625931
    2        6.706726
    3       16.454915
    4       19.195224
    5       22.074667
    6       22.579915
 
 -0.2727273E+00  0.9090909E-01  0.0000000E+00  0.1803156E-01
    1       -1.214461
    2        9.990768
    3       16.405498
    4       20.240672
    5       22.884230
    6       23.512357
 
 -0.1818182E+00  0.9090909E-01  0.0000000E+00  0.1803156E-01
    1       -2.587982
    2       13.621858
    3       16.778646
    4       21.242539
    5       23.705354
    6       24.979101
 
 -0.9090909E-01  0.9090909E-01  0.0000000E+00  0.9015778E-02
    1       -3.482340
    2       17.292336
    3       17.740784
    4       21.981011
    5       23.259666
    6       24.568158
 
  0.1818182E+00  0.1818182E+00  0.0000000E+00  0.4507889E-02
    1       -2.831208
    2       17.273046
    3       17.273056
    4       18.849126
    5       19.251095
    6       22.202721
 
  0.2727273E+00  0.1818182E+00  0.0000000E+00  0.1803156E-01
    1       -1.939675
    2       14.151262
    3       16.497006
    4       17.786084
    5       19.184698
    6       21.753275
 
  0.3636364E+00  0.1818182E+00  0.0000000E+00  0.1803156E-01
    1       -0.570369
    2       10.579076
    3       16.137857
    4       16.200649
    5       18.851078
    6       23.937307
 
  0.4545455E+00  0.1818182E+00  0.0000000E+00  0.1803156E-01
    1        1.264095
    2        7.319175
    3       14.771084
    4       16.200197
    5       18.887940
    6       26.532063
 
 -0.4545455E+00  0.1818182E+00  0.0000000E+00  0.1803156E-01
    1        3.492773
    2        4.511637
    3       13.700864
    4       16.675471
    5       19.404958
    6       25.641979
 
 -0.3636364E+00  0.1818182E+00  0.0000000E+00  0.1803156E-01
    1        1.974572
    2        6.313798
    3       13.052448
    4       17.554154
    5       20.381508
    6       25.083697
 
 -0.2727273E+00  0.1818182E+00  0.0000000E+00  0.1803156E-01
    1       -0.009907
    2        9.425971
    3       12.860112
    4       18.798276
    5       21.777718
    6       24.962284
 
 -0.1818182E+00  0.1818182E+00  0.0000000E+00  0.9015778E-02
    1       -1.536347
    2       12.566869
    3       13.444207
    4       20.293765
    5       23.498362
    6       25.449905
 
  0.2727273E+00  0.2727273E+00  0.0000000E+00  0.4507889E-02
    1       -1.212951
    2       15.580508
    3       15.580515
    4       15.603605
    5       16.987376
    6       19.510499
 
  0.3636364E+00  0.2727273E+00  0.0000000E+00  0.1803156E-01
    1       -0.008342
    2       12.632763
    3       13.662700
    4       15.082583
    5       17.414197
    6       20.226548
 
  0.4545455E+00  0.2727273E+00  0.0000000E+00  0.1803156E-01
    1        1.662937
    2        9.351661
    3       11.959954
    4       15.008029
    5       17.544620
    6       22.928666
 
 -0.4545455E+00  0.2727273E+00  0.0000000E+00  0.1803156E-01
    1        3.774803
    2        6.393800
    3       10.690892
    4       15.355094
    5       17.970716
    6       26.114579
 
 -0.3636364E+00  0.2727273E+00  0.0000000E+00  0.1803156E-01
    1        3.779130
    2        6.364959
    3        9.889923
    4       16.119300
    5       18.834138
    6       28.120270
 
 -0.2727273E+00  0.2727273E+00  0.0000000E+00  0.9015778E-02
    1        1.662358
    2        8.917407
    3        9.936189
    4       17.285996
    5       20.127402
    6       27.595714
 
  0.3636364E+00  0.3636364E+00  0.0000000E+00  0.4507889E-02
    1        1.029013
    2       11.319175
    3       14.444860
    4       14.444866
    5       15.710349
    6       18.214814
 
  0.4545455E+00  0.3636364E+00  0.0000000E+00  0.1803156E-01
    1        2.530402
    2        9.436025
    3       11.809322
    4       14.230695
    5       16.460946
    6       19.360007
 
 -0.4545455E+00  0.3636364E+00  0.0000000E+00  0.1803156E-01
    1        4.465681
    2        7.950937
    3        8.853294
    4       14.440676
    5       16.914217
    6       22.399575
 
 -0.3636364E+00  0.3636364E+00  0.0000000E+00  0.9015778E-02
    1        5.990088
    2        6.467117
    3        7.546907
    4       15.072878
    5       17.667063
    6       25.920809
 
  0.4545455E+00  0.4545455E+00  0.0000000E+00  0.4507889E-02
    1        3.845198
    2        7.407498
    3       13.875999
    4       13.876004
    5       15.068230
    6       17.605321
 
 -0.4545455E+00  0.4545455E+00  0.0000000E+00  0.9015778E-02
    1        5.240150
    2        6.178703
    3       11.499170
    4       13.945962
    5       16.141935
    6       19.068232
 
  0.2727273E+00  0.1818182E+00  0.9090909E-01  0.1803156E-01
    1       -2.506697
    2       14.955929
    3       15.600994
    4       20.201356
    5       21.694959
    6       23.361364
 
  0.3636364E+00  0.1818182E+00  0.9090909E-01  0.3606311E-01
    1       -1.294423
    2       11.538555
    3       14.827287
    4       18.644155
    5       21.784066
    6       24.491008
 
  0.4545455E+00  0.1818182E+00  0.9090909E-01  0.3606311E-01
    1        0.389003
    2        8.159440
    3       14.725196
    4       17.144619
    5       21.646108
    6       24.082675
 
 -0.4545455E+00  0.1818182E+00  0.9090909E-01  0.3606311E-01
    1        2.517522
    2        5.166436
    3       15.011468
    4       16.026274
    5       21.821185
    6       23.122958
 
  0.3636364E+00  0.2727273E+00  0.9090909E-01  0.1803156E-01
    1       -0.891340
    2       13.163222
    3       13.868140
    4       16.096801
    5       19.977020
    6       21.407189
 
  0.4545455E+00  0.2727273E+00  0.9090909E-01  0.3606311E-01
    1        0.629870
    2       10.022846
    3       13.301340
    4       14.374726
    5       20.348890
    6       23.484569
 
 -0.4545455E+00  0.2727273E+00  0.9090909E-01  0.3606311E-01
    1        2.607085
    2        6.927224
    3       12.750317
    4       13.732208
    5       20.617069
    6       25.609975
 
 -0.3636364E+00  0.2727273E+00  0.9090909E-01  0.3606311E-01
    1        4.125926
    2        5.120258
    3       11.859784
    4       14.315215
    5       21.257293
    6       25.080628
 
 -0.2727273E+00  0.2727273E+00  0.9090909E-01  0.3606311E-01
    1        1.899272
    2        7.896316
    3       11.377229
    4       15.390207
    5       22.260052
    6       24.645158
 
 -0.1818182E+00  0.2727273E+00  0.9090909E-01  0.1803156E-01
    1        0.070639
    2       10.748348
    3       11.701825
    4       16.879509
    5       23.420309
    6       24.068748
 
  0.4545455E+00  0.3636364E+00  0.9090909E-01  0.1803156E-01
    1        1.346470
    2       11.545277
    3       11.956724
    4       12.902356
    5       18.784056
    6       20.285004
 
 -0.4545455E+00  0.3636364E+00  0.9090909E-01  0.3606311E-01
    1        3.158304
    2        9.066816
    3       10.105651
    4       12.573991
    5       19.480734
    6       22.747866
 
 -0.3636364E+00  0.3636364E+00  0.9090909E-01  0.3606311E-01
    1        5.360480
    2        6.325015
    3        8.981235
    4       13.056994
    5       20.062688
    6       26.006863
 
 -0.2727273E+00  0.3636364E+00  0.9090909E-01  0.1803156E-01
    1        3.862785
    2        7.693346
    3        8.720510
    4       14.007830
    5       21.011977
    6       27.707339
 
 -0.4545455E+00  0.4545455E+00  0.9090909E-01  0.1803156E-01
    1        4.156571
    2        7.707380
    3       11.351606
    4       12.235426
    5       18.181947
    6       19.726341
 
 -0.3636364E+00  0.4545455E+00  0.9090909E-01  0.1803156E-01
    1        5.853771
    2        6.773877
    3        8.858157
    4       12.260015
    5       19.186513
    6       22.488801
 
 -0.4545455E+00  0.3636364E+00  0.1818182E+00  0.1803156E-01
    1        2.295414
    2        9.529286
    3       10.470164
    4       12.643217
    5       22.951583
    6       23.567455
 
 -0.3636364E+00  0.3636364E+00  0.1818182E+00  0.3606311E-01
    1        4.401100
    2        6.974191
    3       10.388785
    4       11.431106
    5       23.439689
    6       24.728744
 
 -0.3636364E+00  0.4545455E+00  0.1818182E+00  0.1803156E-01
    1        5.086021
    2        8.545209
    3        8.919209
    4       10.079175
    5       22.375481
    6       23.265085
 
 -0.2727273E+00  0.4545455E+00  0.1818182E+00  0.1803156E-01
    1        6.590367
    2        7.080123
    3        8.090526
    4       10.280046
    5       23.369116
    6       26.020513
