       N       E                     dE             d eps       ncg     rms          rms(c)
DAV:   1    -0.329159738958E+01   -0.32916E+01   -0.10223E+03   732   0.271E+02
DAV:   2    -0.511111211082E+01   -0.18195E+01   -0.16885E+01   972   0.265E+01
DAV:   3    -0.513117775347E+01   -0.20066E-01   -0.19830E-01   810   0.273E+00
DAV:   4    -0.513120602058E+01   -0.28267E-04   -0.28267E-04  1002   0.109E-01
DAV:   5    -0.513120606471E+01   -0.44132E-07   -0.45149E-07   786   0.297E-03    0.630E-01
DAV:   6    -0.511884393309E+01    0.12362E-01   -0.67959E-03   768   0.434E-01    0.360E-01
DAV:   7    -0.511314222992E+01    0.57017E-02   -0.11376E-02   702   0.559E-01    0.282E-02
DAV:   8    -0.511311547215E+01    0.26758E-04   -0.45796E-05   762   0.607E-02
   1 F= -.51131155E+01 E0= -.51111141E+01  d E =-.511312E+01
       N       E                     dE             d eps       ncg     rms          rms(c)
DAV:   1    -0.577557036080E+01   -0.66243E+00   -0.12033E+01   726   0.194E+01    0.236E+00
DAV:   2    -0.559879182174E+01    0.17678E+00   -0.90886E-02   804   0.232E+00    0.136E+00
DAV:   3    -0.550606907663E+01    0.92723E-01   -0.13052E-01   714   0.198E+00    0.645E-02
DAV:   4    -0.550579821789E+01    0.27086E-03   -0.33686E-04   900   0.191E-01    0.289E-02
DAV:   5    -0.550572543484E+01    0.72783E-04   -0.11278E-05   408   0.317E-02
   2 F= -.55057254E+01 E0= -.55041896E+01  d E =-.392610E+00
       N       E                     dE             d eps       ncg     rms          rms(c)
DAV:   1    -0.552270478414E+01   -0.16907E-01   -0.26400E-01   708   0.275E+00    0.346E-01
DAV:   2    -0.551921498140E+01    0.34898E-02   -0.19413E-03   774   0.364E-01    0.200E-01
DAV:   3    -0.551732677904E+01    0.18882E-02   -0.24990E-03   756   0.279E-01    0.820E-03
DAV:   4    -0.551732192280E+01    0.48562E-05   -0.57331E-06   372   0.256E-02
   3 F= -.55173219E+01 E0= -.55160130E+01  d E =-.404206E+00
