 vasp.5.3.5 31Mar14 (build Feb  5 2015 19:39:53) complex                        
  
 executed on              HPCUofA date 2017.11.12  22:49:31
 running on    1 total cores
 distrk:  each k-point on    1 cores,    1 groups
 distr:  one band on NCORES_PER_BAND=   1 cores,    1 groups


--------------------------------------------------------------------------------------------------------


 INCAR:
 POTCAR:   PAW Si 02Apr1999                       
 POTCAR:   PAW Si 02Apr1999                       
   VRHFIN =Si: s2p2                                                             
   LEXCH  = CA                                                                  
   EATOM  =   103.4338 eV,    7.6022 Ry                                         
                                                                                
   TITEL  = PAW Si 02Apr1999                                                    
   LULTRA =        F    use ultrasoft PP ?                                      
   IUNSCR =        1    unscreen: 0-lin 1-nonlin 2-no                           
   RPACOR =    1.500    partial core radius                                     
   POMASS =   28.085; ZVAL   =    4.000    mass and valenz                      
   RCORE  =    1.900    outmost cutoff radius                                   
   RWIGS  =    2.480; RWIGS  =    1.312    wigner-seitz radius (au A)           
   ENMAX  =  245.704; ENMIN  =  184.278 eV                                      
   ICORE  =        2    local potential                                         
   LCOR   =        T    correct aug charges                                     
   LPAW   =        T    paw PP                                                  
   EAUG   =  322.069                                                            
   DEXC   =    -.006                                                            
   RMAX   =    2.941    core radius for proj-oper                               
   RAUG   =    1.300    factor for augmentation sphere                          
   RDEP   =    1.993    core radius for depl-charge                             
   QCUT   =   -4.250; QGAM   =    8.499    optimization parameters              
                                                                                
   Description                                                                  
     l     E      TYP  RCUT    TYP  RCUT                                        
     0   .000     23  1.900                                                     
     0   .000     23  1.900                                                     
     1   .000     23  1.900                                                     
     1   .000     23  1.900                                                     
     2   .000      7  1.900                                                     
  local pseudopotential read in
  partial core-charges read in
  atomic valenz-charges read in
  non local Contribution for L=           0  read in
    real space projection operators read in
  non local Contribution for L=           0  read in
    real space projection operators read in
  non local Contribution for L=           1  read in
    real space projection operators read in
  non local Contribution for L=           1  read in
    real space projection operators read in
    PAW grid and wavefunctions read in
 
   number of l-projection  operators is LMAX  =           4
   number of lm-projection operators is LMMAX =           8
 
 PAW Si 02Apr1999                       :
 energy of atom  1       EATOM= -103.4338
 kinetic energy error for atom=    0.0062 (will be added to EATOM!!)
 
 
 POSCAR: fcc Si:                                 
  positions in cartesian coordinates
  No initial velocities read in
 exchange correlation table for  LEXCH =        2
   RHO(1)=    0.500       N(1)  =     2000
   RHO(2)=  100.500       N(2)  =     4000
 


--------------------------------------------------------------------------------------------------------


 ion  position               nearest neighbor table
   1  0.000  0.000  0.000-
 
  LATTYP: Found a face centered cubic cell.
 ALAT       =     4.3000000000
  
  Lattice vectors:
  
 A1 = (   2.1500000000,   2.1500000000,   0.0000000000)
 A2 = (   0.0000000000,   2.1500000000,   2.1500000000)
 A3 = (   2.1500000000,   0.0000000000,   2.1500000000)


Analysis of symmetry for initial positions (statically):
=====================================================================
 Subroutine PRICEL returns:
 Original cell was already a primitive cell.
 

 Routine SETGRP: Setting up the symmetry group for a 
 face centered cubic supercell.


 Subroutine GETGRP returns: Found 48 space group operations
 (whereof 48 operations were pure point group operations)
 out of a pool of 48 trial point group operations.


The static configuration has the point symmetry O_h .


Analysis of symmetry for dynamics (positions and initial velocities):
=====================================================================
 Subroutine PRICEL returns:
 Original cell was already a primitive cell.
 

 Routine SETGRP: Setting up the symmetry group for a 
 face centered cubic supercell.


 Subroutine GETGRP returns: Found 48 space group operations
 (whereof 48 operations were pure point group operations)
 out of a pool of 48 trial point group operations.


The dynamic configuration has the point symmetry O_h .
 
 
 KPOINTS: k-points                                

Automatic generation of k-mesh.
Space group operators:
 irot       det(A)        alpha          n_x          n_y          n_z        tau_x        tau_y        tau_z
    1     1.000000     0.000000     1.000000     0.000000     0.000000     0.000000     0.000000     0.000000
    2    -1.000000     0.000000     1.000000     0.000000     0.000000     0.000000     0.000000     0.000000
    3     1.000000   120.000000    -0.577350    -0.577350    -0.577350     0.000000     0.000000     0.000000
    4    -1.000000   120.000000    -0.577350    -0.577350    -0.577350     0.000000     0.000000     0.000000
    5     1.000000   120.000000     0.577350     0.577350     0.577350     0.000000     0.000000     0.000000
    6    -1.000000   120.000000     0.577350     0.577350     0.577350     0.000000     0.000000     0.000000
    7     1.000000    90.000000     0.000000    -1.000000     0.000000     0.000000     0.000000     0.000000
    8    -1.000000    90.000000     0.000000    -1.000000     0.000000     0.000000     0.000000     0.000000
    9     1.000000   180.000000     0.707107     0.707107     0.000000     0.000000     0.000000     0.000000
   10    -1.000000   180.000000     0.707107     0.707107     0.000000     0.000000     0.000000     0.000000
   11     1.000000    90.000000     1.000000     0.000000     0.000000     0.000000     0.000000     0.000000
   12    -1.000000    90.000000     1.000000     0.000000     0.000000     0.000000     0.000000     0.000000
   13     1.000000   180.000000     0.000000     1.000000     0.000000     0.000000     0.000000     0.000000
   14    -1.000000   180.000000     0.000000     1.000000     0.000000     0.000000     0.000000     0.000000
   15     1.000000   120.000000     0.577350     0.577350    -0.577350     0.000000     0.000000     0.000000
   16    -1.000000   120.000000     0.577350     0.577350    -0.577350     0.000000     0.000000     0.000000
   17     1.000000   120.000000     0.577350    -0.577350    -0.577350     0.000000     0.000000     0.000000
   18    -1.000000   120.000000     0.577350    -0.577350    -0.577350     0.000000     0.000000     0.000000
   19     1.000000    90.000000     0.000000     1.000000     0.000000     0.000000     0.000000     0.000000
   20    -1.000000    90.000000     0.000000     1.000000     0.000000     0.000000     0.000000     0.000000
   21     1.000000    90.000000     0.000000     0.000000    -1.000000     0.000000     0.000000     0.000000
   22    -1.000000    90.000000     0.000000     0.000000    -1.000000     0.000000     0.000000     0.000000
   23     1.000000   180.000000     0.000000     0.707107     0.707107     0.000000     0.000000     0.000000
   24    -1.000000   180.000000     0.000000     0.707107     0.707107     0.000000     0.000000     0.000000
   25     1.000000   120.000000    -0.577350     0.577350     0.577350     0.000000     0.000000     0.000000
   26    -1.000000   120.000000    -0.577350     0.577350     0.577350     0.000000     0.000000     0.000000
   27     1.000000   120.000000    -0.577350     0.577350    -0.577350     0.000000     0.000000     0.000000
   28    -1.000000   120.000000    -0.577350     0.577350    -0.577350     0.000000     0.000000     0.000000
   29     1.000000   180.000000     0.000000     0.000000     1.000000     0.000000     0.000000     0.000000
   30    -1.000000   180.000000     0.000000     0.000000     1.000000     0.000000     0.000000     0.000000
   31     1.000000    90.000000    -1.000000     0.000000     0.000000     0.000000     0.000000     0.000000
   32    -1.000000    90.000000    -1.000000     0.000000     0.000000     0.000000     0.000000     0.000000
   33     1.000000   180.000000     0.707107     0.000000     0.707107     0.000000     0.000000     0.000000
   34    -1.000000   180.000000     0.707107     0.000000     0.707107     0.000000     0.000000     0.000000
   35     1.000000    90.000000     0.000000     0.000000     1.000000     0.000000     0.000000     0.000000
   36    -1.000000    90.000000     0.000000     0.000000     1.000000     0.000000     0.000000     0.000000
   37     1.000000   120.000000    -0.577350    -0.577350     0.577350     0.000000     0.000000     0.000000
   38    -1.000000   120.000000    -0.577350    -0.577350     0.577350     0.000000     0.000000     0.000000
   39     1.000000   180.000000     1.000000     0.000000     0.000000     0.000000     0.000000     0.000000
   40    -1.000000   180.000000     1.000000     0.000000     0.000000     0.000000     0.000000     0.000000
   41     1.000000   120.000000     0.577350    -0.577350     0.577350     0.000000     0.000000     0.000000
   42    -1.000000   120.000000     0.577350    -0.577350     0.577350     0.000000     0.000000     0.000000
   43     1.000000   180.000000     0.707107    -0.707107     0.000000     0.000000     0.000000     0.000000
   44    -1.000000   180.000000     0.707107    -0.707107     0.000000     0.000000     0.000000     0.000000
   45     1.000000   180.000000     0.707107     0.000000    -0.707107     0.000000     0.000000     0.000000
   46    -1.000000   180.000000     0.707107     0.000000    -0.707107     0.000000     0.000000     0.000000
   47     1.000000   180.000000     0.000000    -0.707107     0.707107     0.000000     0.000000     0.000000
   48    -1.000000   180.000000     0.000000    -0.707107     0.707107     0.000000     0.000000     0.000000
 
 Subroutine IBZKPT returns following result:
 ===========================================
 
 Found     56 irreducible k-points:
 
 Following reciprocal coordinates:
            Coordinates               Weight
  0.000000  0.000000  0.000000      1.000000
  0.090909  0.000000  0.000000      8.000000
  0.181818  0.000000  0.000000      8.000000
  0.272727  0.000000  0.000000      8.000000
  0.363636  0.000000  0.000000      8.000000
  0.454545  0.000000  0.000000      8.000000
  0.090909  0.090909  0.000000      6.000000
  0.181818  0.090909  0.000000     24.000000
  0.272727  0.090909  0.000000     24.000000
  0.363636  0.090909  0.000000     24.000000
  0.454545  0.090909  0.000000     24.000000
 -0.454545  0.090909  0.000000     24.000000
 -0.363636  0.090909  0.000000     24.000000
 -0.272727  0.090909  0.000000     24.000000
 -0.181818  0.090909  0.000000     24.000000
 -0.090909  0.090909  0.000000     12.000000
  0.181818  0.181818  0.000000      6.000000
  0.272727  0.181818  0.000000     24.000000
  0.363636  0.181818  0.000000     24.000000
  0.454545  0.181818  0.000000     24.000000
 -0.454545  0.181818  0.000000     24.000000
 -0.363636  0.181818  0.000000     24.000000
 -0.272727  0.181818  0.000000     24.000000
 -0.181818  0.181818  0.000000     12.000000
  0.272727  0.272727  0.000000      6.000000
  0.363636  0.272727  0.000000     24.000000
  0.454545  0.272727  0.000000     24.000000
 -0.454545  0.272727  0.000000     24.000000
 -0.363636  0.272727  0.000000     24.000000
 -0.272727  0.272727  0.000000     12.000000
  0.363636  0.363636  0.000000      6.000000
  0.454545  0.363636  0.000000     24.000000
 -0.454545  0.363636  0.000000     24.000000
 -0.363636  0.363636  0.000000     12.000000
  0.454545  0.454545  0.000000      6.000000
 -0.454545  0.454545  0.000000     12.000000
  0.272727  0.181818  0.090909     24.000000
  0.363636  0.181818  0.090909     48.000000
  0.454545  0.181818  0.090909     48.000000
 -0.454545  0.181818  0.090909     48.000000
  0.363636  0.272727  0.090909     24.000000
  0.454545  0.272727  0.090909     48.000000
 -0.454545  0.272727  0.090909     48.000000
 -0.363636  0.272727  0.090909     48.000000
 -0.272727  0.272727  0.090909     48.000000
 -0.181818  0.272727  0.090909     24.000000
  0.454545  0.363636  0.090909     24.000000
 -0.454545  0.363636  0.090909     48.000000
 -0.363636  0.363636  0.090909     48.000000
 -0.272727  0.363636  0.090909     24.000000
 -0.454545  0.454545  0.090909     24.000000
 -0.363636  0.454545  0.090909     24.000000
 -0.454545  0.363636  0.181818     24.000000
 -0.363636  0.363636  0.181818     48.000000
 -0.363636  0.454545  0.181818     24.000000
 -0.272727  0.454545  0.181818     24.000000
 
 Following cartesian coordinates:
            Coordinates               Weight
  0.000000  0.000000  0.000000      1.000000
  0.090909  0.090909 -0.090909      8.000000
  0.181818  0.181818 -0.181818      8.000000
  0.272727  0.272727 -0.272727      8.000000
  0.363636  0.363636 -0.363636      8.000000
  0.454545  0.454545 -0.454545      8.000000
  0.000000  0.181818  0.000000      6.000000
  0.090909  0.272727 -0.090909     24.000000
  0.181818  0.363636 -0.181818     24.000000
  0.272727  0.454545 -0.272727     24.000000
  0.363636  0.545455 -0.363636     24.000000
 -0.545455 -0.363636  0.545455     24.000000
 -0.454545 -0.272727  0.454545     24.000000
 -0.363636 -0.181818  0.363636     24.000000
 -0.272727 -0.090909  0.272727     24.000000
 -0.181818  0.000000  0.181818     12.000000
  0.000000  0.363636  0.000000      6.000000
  0.090909  0.454545 -0.090909     24.000000
  0.181818  0.545455 -0.181818     24.000000
  0.272727  0.636364 -0.272727     24.000000
 -0.636364 -0.272727  0.636364     24.000000
 -0.545455 -0.181818  0.545455     24.000000
 -0.454545 -0.090909  0.454545     24.000000
 -0.363636  0.000000  0.363636     12.000000
  0.000000  0.545455  0.000000      6.000000
  0.090909  0.636364 -0.090909     24.000000
  0.181818  0.727273 -0.181818     24.000000
 -0.727273 -0.181818  0.727273     24.000000
 -0.636364 -0.090909  0.636364     24.000000
 -0.545455  0.000000  0.545455     12.000000
  0.000000  0.727273  0.000000      6.000000
  0.090909  0.818182 -0.090909     24.000000
 -0.818182 -0.090909  0.818182     24.000000
 -0.727273  0.000000  0.727273     12.000000
  0.000000  0.909091  0.000000      6.000000
 -0.909091  0.000000  0.909091     12.000000
  0.181818  0.363636  0.000000     24.000000
  0.272727  0.454545 -0.090909     48.000000
  0.363636  0.545455 -0.181818     48.000000
 -0.545455 -0.363636  0.727273     48.000000
  0.181818  0.545455  0.000000     24.000000
  0.272727  0.636364 -0.090909     48.000000
 -0.636364 -0.272727  0.818182     48.000000
 -0.545455 -0.181818  0.727273     48.000000
 -0.454545 -0.090909  0.636364     48.000000
 -0.363636 -0.000000  0.545455     24.000000
  0.181818  0.727273 -0.000000     24.000000
 -0.727273 -0.181818  0.909091     48.000000
 -0.636364 -0.090909  0.818182     48.000000
 -0.545455 -0.000000  0.727273     24.000000
 -0.818182 -0.090909  1.000000     24.000000
 -0.727273 -0.000000  0.909091     24.000000
 -0.636364 -0.272727  1.000000     24.000000
 -0.545455 -0.181818  0.909091     48.000000
 -0.636364 -0.090909  1.000000     24.000000
 -0.545455  0.000000  0.909091     24.000000
 


--------------------------------------------------------------------------------------------------------




 Dimension of arrays:
   k-points           NKPTS =     56   k-points in BZ     NKDIM =     56   number of bands    NBANDS=      6
   number of dos      NEDOS =    301   number of ions     NIONS =      1
   non local maximal  LDIM  =      4   non local SUM 2l+1 LMDIM =      8
   total plane-waves  NPLWV =   1728
   max r-space proj   IRMAX =      1   max aug-charges    IRDMAX=   3106
   dimension x,y,z NGX =    12 NGY =   12 NGZ =   12
   dimension x,y,z NGXF=    24 NGYF=   24 NGZF=   24
   support grid    NGXF=    24 NGYF=   24 NGZF=   24
   ions per type =               1
 NGX,Y,Z   is equivalent  to a cutoff of   6.56,  6.56,  6.56 a.u.
 NGXF,Y,Z  is equivalent  to a cutoff of  13.12, 13.12, 13.12 a.u.


 I would recommend the setting:
   dimension x,y,z NGX =    12 NGY =   12 NGZ =   12
 SYSTEM =  diamond Si                              
 POSCAR =  fcc Si:                                 

 Startparameter for this run:
   NWRITE =      2    write-flag & timer
   PREC   = normal    normal or accurate (medium, high low for compatibility)
   ISTART =      0    job   : 0-new  1-cont  2-samecut
   ICHARG =      2    charge: 1-file 2-atom 10-const
   ISPIN  =      1    spin polarized calculation?
   LNONCOLLINEAR =      F non collinear calculations
   LSORBIT =      F    spin-orbit coupling
   INIWAV =      1    electr: 0-lowe 1-rand  2-diag
   LASPH  =      F    aspherical Exc in radial PAW
   METAGGA=      F    non-selfconsistent MetaGGA calc.

 Electronic Relaxation 1
   ENCUT  =  240.0 eV  17.64 Ry    4.20 a.u.   3.84  3.84  3.84*2*pi/ulx,y,z
   ENINI  =  240.0     initial cutoff
   ENAUG  =  322.1 eV  augmentation charge cutoff
   NELM   =     60;   NELMIN=  2; NELMDL= -5     # of ELM steps 
   EDIFF  = 0.1E-03   stopping-criterion for ELM
   LREAL  =      F    real-space projection
   NLSPLINE    = F    spline interpolate recip. space projectors
   LCOMPAT=      F    compatible to vasp.4.4
   GGA_COMPAT  = T    GGA compatible to vasp.4.4-vasp.4.6
   LMAXPAW     = -100 max onsite density
   LMAXMIX     =    2 max onsite mixed and CHGCAR
   VOSKOWN=      0    Vosko Wilk Nusair interpolation
   ROPT   =    0.00000
 Ionic relaxation
   EDIFFG = 0.1E-02   stopping-criterion for IOM
   NSW    =      5    number of steps for IOM
   NBLOCK =      1;   KBLOCK =      5    inner block; outer block 
   IBRION =      2    ionic relax: 0-MD 1-quasi-New 2-CG
   NFREE  =      1    steps in history (QN), initial steepest desc. (CG)
   ISIF   =      3    stress and relaxation
   IWAVPR =     11    prediction:  0-non 1-charg 2-wave 3-comb
   ISYM   =      2    0-nonsym 1-usesym 2-fastsym
   LCORR  =      T    Harris-Foulkes like correction to forces

   POTIM  = 0.5000    time-step for ionic-motion
   TEIN   =    0.0    initial temperature
   TEBEG  =    0.0;   TEEND  =   0.0 temperature during run
   SMASS  =  -3.00    Nose mass-parameter (am)
   estimated Nose-frequenzy (Omega)   =  0.10E-29 period in steps =****** mass=  -0.211E-27a.u.
   SCALEE = 1.0000    scale energy and forces
   NPACO  =    256;   APACO  = 16.0  distance and # of slots for P.C.
   PSTRESS=    0.0 pullay stress

  Mass of Ions in am
   POMASS =  28.09
  Ionic Valenz
   ZVAL   =   4.00
  Atomic Wigner-Seitz radii
   RWIGS  =  -1.00
  virtual crystal weights 
   VCA    =   1.00
   NELECT =       4.0000    total number of electrons
   NUPDOWN=      -1.0000    fix difference up-down

 DOS related values:
   EMIN   =  10.00;   EMAX   =-10.00  energy-range for DOS
   EFERMI =   0.00
   ISMEAR =     0;   SIGMA  =   0.10  broadening in eV -4-tet -1-fermi 0-gaus

 Electronic relaxation 2 (details)
   IALGO  =     38    algorithm
   LDIAG  =      T    sub-space diagonalisation (order eigenvalues)
   LSUBROT=      F    optimize rotation matrix (better conditioning)
   TURBO    =      0    0=normal 1=particle mesh
   IRESTART =      0    0=no restart 2=restart with 2 vectors
   NREBOOT  =      0    no. of reboots
   NMIN     =      0    reboot dimension
   EREF     =   0.00    reference energy to select bands
   IMIX   =      4    mixing-type and parameters
     AMIX     =   0.40;   BMIX     =  1.00
     AMIX_MAG =   1.60;   BMIX_MAG =  1.00
     AMIN     =   0.10
     WC   =   100.;   INIMIX=   1;  MIXPRE=   1;  MAXMIX= -45

 Intra band minimization:
   WEIMIN = 0.0010     energy-eigenvalue tresh-hold
   EBREAK =  0.42E-05  absolut break condition
   DEPER  =   0.30     relativ break condition  

   TIME   =   0.40     timestep for ELM

  volume/ion in A,a.u.               =      19.88       134.13
  Fermi-wavevector in a.u.,A,eV,Ry     =   0.959356  1.812920 12.522306  0.920364
  Thomas-Fermi vector in A             =   2.088545
 
 Write flags
   LWAVE  =      T    write WAVECAR
   LCHARG =      T    write CHGCAR
   LVTOT  =      F    write LOCPOT, total local potential
   LVHAR  =      F    write LOCPOT, Hartree potential only
   LELF   =      F    write electronic localiz. function (ELF)
   LORBIT =      0    0 simple, 1 ext, 2 COOP (PROOUT)


 Dipole corrections
   LMONO  =      F    monopole corrections only (constant potential shift)
   LDIPOL =      F    correct potential (dipole corrections)
   IDIPOL =      0    1-x, 2-y, 3-z, 4-all directions 
   EPSILON=  1.0000000 bulk dielectric constant

 Exchange correlation treatment:
   GGA     =    --    GGA type
   LEXCH   =     2    internal setting for exchange type
   VOSKOWN=      0    Vosko Wilk Nusair interpolation
   LHFCALC =     F    Hartree Fock is set to
   LHFONE  =     F    Hartree Fock one center treatment
   AEXX    =    0.0000 exact exchange contribution

 Linear response parameters
   LEPSILON=     F    determine dielectric tensor
   LRPA    =     F    only Hartree local field effects (RPA)
   LNABLA  =     F    use nabla operator in PAW spheres
   LVEL    =     F    velocity operator in full k-point grid
   LINTERFAST=   F  fast interpolation
   KINTER  =     0    interpolate to denser k-point grid
   CSHIFT  =0.1000    complex shift for real part using Kramers Kronig
   OMEGAMAX=  -1.0    maximum frequency
   DEG_THRESHOLD= 0.2000000E-02 threshold for treating states as degnerate
   RTIME   =    0.100 relaxation time in fs

 Orbital magnetization related:
   ORBITALMAG=     F  switch on orbital magnetization
   LCHIMAG   =     F  perturbation theory with respect to B field
   DQ        =  0.001000  dq finite difference perturbation B field



--------------------------------------------------------------------------------------------------------


 conjugate gradient relaxation of ions
 charge density and potential will be updated during run
 non-spin polarized calculation
 Variant of blocked Davidson
 Davidson routine will perform the subspace rotation
 perform sub-space diagonalisation
    after iterative eigenvector-optimisation
 modified Broyden-mixing scheme, WC =      100.0
 initial mixing is a Kerker type mixing with AMIX =  0.4000 and BMIX =      1.0000
 Hartree-type preconditioning will be used
 using additional bands            4
 reciprocal scheme for non local part
 use partial core corrections
 calculate Harris-corrections to forces 
   (improved forces if not selfconsistent)
 use of overlap-Matrix (Vanderbilt PP)
 Gauss-broadening in eV      SIGMA  =   0.10


--------------------------------------------------------------------------------------------------------


  energy-cutoff  :      240.00
  volume of cell :       19.88
      direct lattice vectors                 reciprocal lattice vectors
     2.150000000  2.150000000  0.000000000     0.232558140  0.232558140 -0.232558140
     0.000000000  2.150000000  2.150000000    -0.232558140  0.232558140  0.232558140
     2.150000000  0.000000000  2.150000000     0.232558140 -0.232558140  0.232558140

  length of vectors
     3.040559159  3.040559159  3.040559159     0.402802513  0.402802513  0.402802513


 
 k-points in units of 2pi/SCALE and weight: k-points                                
   0.00000000  0.00000000  0.00000000       0.001
   0.09090909  0.09090909 -0.09090909       0.006
   0.18181818  0.18181818 -0.18181818       0.006
   0.27272727  0.27272727 -0.27272727       0.006
   0.36363636  0.36363636 -0.36363636       0.006
   0.45454545  0.45454545 -0.45454545       0.006
   0.00000000  0.18181818  0.00000000       0.005
   0.09090909  0.27272727 -0.09090909       0.018
   0.18181818  0.36363636 -0.18181818       0.018
   0.27272727  0.45454545 -0.27272727       0.018
   0.36363636  0.54545455 -0.36363636       0.018
  -0.54545455 -0.36363636  0.54545455       0.018
  -0.45454545 -0.27272727  0.45454545       0.018
  -0.36363636 -0.18181818  0.36363636       0.018
  -0.27272727 -0.09090909  0.27272727       0.018
  -0.18181818  0.00000000  0.18181818       0.009
   0.00000000  0.36363636  0.00000000       0.005
   0.09090909  0.45454545 -0.09090909       0.018
   0.18181818  0.54545455 -0.18181818       0.018
   0.27272727  0.63636364 -0.27272727       0.018
  -0.63636364 -0.27272727  0.63636364       0.018
  -0.54545455 -0.18181818  0.54545455       0.018
  -0.45454545 -0.09090909  0.45454545       0.018
  -0.36363636  0.00000000  0.36363636       0.009
   0.00000000  0.54545455  0.00000000       0.005
   0.09090909  0.63636364 -0.09090909       0.018
   0.18181818  0.72727273 -0.18181818       0.018
  -0.72727273 -0.18181818  0.72727273       0.018
  -0.63636364 -0.09090909  0.63636364       0.018
  -0.54545455  0.00000000  0.54545455       0.009
   0.00000000  0.72727273  0.00000000       0.005
   0.09090909  0.81818182 -0.09090909       0.018
  -0.81818182 -0.09090909  0.81818182       0.018
  -0.72727273  0.00000000  0.72727273       0.009
   0.00000000  0.90909091  0.00000000       0.005
  -0.90909091  0.00000000  0.90909091       0.009
   0.18181818  0.36363636  0.00000000       0.018
   0.27272727  0.45454545 -0.09090909       0.036
   0.36363636  0.54545455 -0.18181818       0.036
  -0.54545455 -0.36363636  0.72727273       0.036
   0.18181818  0.54545455  0.00000000       0.018
   0.27272727  0.63636364 -0.09090909       0.036
  -0.63636364 -0.27272727  0.81818182       0.036
  -0.54545455 -0.18181818  0.72727273       0.036
  -0.45454545 -0.09090909  0.63636364       0.036
  -0.36363636 -0.00000000  0.54545455       0.018
   0.18181818  0.72727273 -0.00000000       0.018
  -0.72727273 -0.18181818  0.90909091       0.036
  -0.63636364 -0.09090909  0.81818182       0.036
  -0.54545455 -0.00000000  0.72727273       0.018
  -0.81818182 -0.09090909  1.00000000       0.018
  -0.72727273 -0.00000000  0.90909091       0.018
  -0.63636364 -0.27272727  1.00000000       0.018
  -0.54545455 -0.18181818  0.90909091       0.036
  -0.63636364 -0.09090909  1.00000000       0.018
  -0.54545455  0.00000000  0.90909091       0.018
 
 k-points in reciprocal lattice and weights: k-points                                
   0.00000000  0.00000000  0.00000000       0.001
   0.09090909  0.00000000  0.00000000       0.006
   0.18181818  0.00000000  0.00000000       0.006
   0.27272727  0.00000000  0.00000000       0.006
   0.36363636  0.00000000  0.00000000       0.006
   0.45454545  0.00000000  0.00000000       0.006
   0.09090909  0.09090909  0.00000000       0.005
   0.18181818  0.09090909  0.00000000       0.018
   0.27272727  0.09090909  0.00000000       0.018
   0.36363636  0.09090909  0.00000000       0.018
   0.45454545  0.09090909  0.00000000       0.018
  -0.45454545  0.09090909  0.00000000       0.018
  -0.36363636  0.09090909  0.00000000       0.018
  -0.27272727  0.09090909  0.00000000       0.018
  -0.18181818  0.09090909  0.00000000       0.018
  -0.09090909  0.09090909  0.00000000       0.009
   0.18181818  0.18181818  0.00000000       0.005
   0.27272727  0.18181818  0.00000000       0.018
   0.36363636  0.18181818  0.00000000       0.018
   0.45454545  0.18181818  0.00000000       0.018
  -0.45454545  0.18181818  0.00000000       0.018
  -0.36363636  0.18181818  0.00000000       0.018
  -0.27272727  0.18181818  0.00000000       0.018
  -0.18181818  0.18181818  0.00000000       0.009
   0.27272727  0.27272727  0.00000000       0.005
   0.36363636  0.27272727  0.00000000       0.018
   0.45454545  0.27272727  0.00000000       0.018
  -0.45454545  0.27272727  0.00000000       0.018
  -0.36363636  0.27272727  0.00000000       0.018
  -0.27272727  0.27272727  0.00000000       0.009
   0.36363636  0.36363636  0.00000000       0.005
   0.45454545  0.36363636  0.00000000       0.018
  -0.45454545  0.36363636  0.00000000       0.018
  -0.36363636  0.36363636  0.00000000       0.009
   0.45454545  0.45454545  0.00000000       0.005
  -0.45454545  0.45454545  0.00000000       0.009
   0.27272727  0.18181818  0.09090909       0.018
   0.36363636  0.18181818  0.09090909       0.036
   0.45454545  0.18181818  0.09090909       0.036
  -0.45454545  0.18181818  0.09090909       0.036
   0.36363636  0.27272727  0.09090909       0.018
   0.45454545  0.27272727  0.09090909       0.036
  -0.45454545  0.27272727  0.09090909       0.036
  -0.36363636  0.27272727  0.09090909       0.036
  -0.27272727  0.27272727  0.09090909       0.036
  -0.18181818  0.27272727  0.09090909       0.018
   0.45454545  0.36363636  0.09090909       0.018
  -0.45454545  0.36363636  0.09090909       0.036
  -0.36363636  0.36363636  0.09090909       0.036
  -0.27272727  0.36363636  0.09090909       0.018
  -0.45454545  0.45454545  0.09090909       0.018
  -0.36363636  0.45454545  0.09090909       0.018
  -0.45454545  0.36363636  0.18181818       0.018
  -0.36363636  0.36363636  0.18181818       0.036
  -0.36363636  0.45454545  0.18181818       0.018
  -0.27272727  0.45454545  0.18181818       0.018
 
 position of ions in fractional coordinates (direct lattice) 
   0.00000000  0.00000000  0.00000000
 
 position of ions in cartesian coordinates  (Angst):
   0.00000000  0.00000000  0.00000000
 


--------------------------------------------------------------------------------------------------------


 k-point  1 :   0.0000 0.0000 0.0000  plane waves:     169
 k-point  2 :   0.0909 0.0000 0.0000  plane waves:     169
 k-point  3 :   0.1818 0.0000 0.0000  plane waves:     168
 k-point  4 :   0.2727 0.0000 0.0000  plane waves:     162
 k-point  5 :   0.3636 0.0000 0.0000  plane waves:     162
 k-point  6 :   0.4545 0.0000 0.0000  plane waves:     168
 k-point  7 :   0.0909 0.0909 0.0000  plane waves:     169
 k-point  8 :   0.1818 0.0909 0.0000  plane waves:     167
 k-point  9 :   0.2727 0.0909 0.0000  plane waves:     165
 k-point 10 :   0.3636 0.0909 0.0000  plane waves:     164
 k-point 11 :   0.4545 0.0909 0.0000  plane waves:     169
 k-point 12 :  -0.4545 0.0909 0.0000  plane waves:     166
 k-point 13 :  -0.3636 0.0909 0.0000  plane waves:     167
 k-point 14 :  -0.2727 0.0909 0.0000  plane waves:     163
 k-point 15 :  -0.1818 0.0909 0.0000  plane waves:     164
 k-point 16 :  -0.0909 0.0909 0.0000  plane waves:     170
 k-point 17 :   0.1818 0.1818 0.0000  plane waves:     169
 k-point 18 :   0.2727 0.1818 0.0000  plane waves:     166
 k-point 19 :   0.3636 0.1818 0.0000  plane waves:     166
 k-point 20 :   0.4545 0.1818 0.0000  plane waves:     163
 k-point 21 :  -0.4545 0.1818 0.0000  plane waves:     168
 k-point 22 :  -0.3636 0.1818 0.0000  plane waves:     168
 k-point 23 :  -0.2727 0.1818 0.0000  plane waves:     164
 k-point 24 :  -0.1818 0.1818 0.0000  plane waves:     168
 k-point 25 :   0.2727 0.2727 0.0000  plane waves:     165
 k-point 26 :   0.3636 0.2727 0.0000  plane waves:     167
 k-point 27 :   0.4545 0.2727 0.0000  plane waves:     167
 k-point 28 :  -0.4545 0.2727 0.0000  plane waves:     174
 k-point 29 :  -0.3636 0.2727 0.0000  plane waves:     172
 k-point 30 :  -0.2727 0.2727 0.0000  plane waves:     168
 k-point 31 :   0.3636 0.3636 0.0000  plane waves:     170
 k-point 32 :   0.4545 0.3636 0.0000  plane waves:     168
 k-point 33 :  -0.4545 0.3636 0.0000  plane waves:     174
 k-point 34 :  -0.3636 0.3636 0.0000  plane waves:     172
 k-point 35 :   0.4545 0.4545 0.0000  plane waves:     162
 k-point 36 :  -0.4545 0.4545 0.0000  plane waves:     178
 k-point 37 :   0.2727 0.1818 0.0909  plane waves:     164
 k-point 38 :   0.3636 0.1818 0.0909  plane waves:     166
 k-point 39 :   0.4545 0.1818 0.0909  plane waves:     162
 k-point 40 :  -0.4545 0.1818 0.0909  plane waves:     167
 k-point 41 :   0.3636 0.2727 0.0909  plane waves:     165
 k-point 42 :   0.4545 0.2727 0.0909  plane waves:     168
 k-point 43 :  -0.4545 0.2727 0.0909  plane waves:     167
 k-point 44 :  -0.3636 0.2727 0.0909  plane waves:     170
 k-point 45 :  -0.2727 0.2727 0.0909  plane waves:     168
 k-point 46 :  -0.1818 0.2727 0.0909  plane waves:     166
 k-point 47 :   0.4545 0.3636 0.0909  plane waves:     172
 k-point 48 :  -0.4545 0.3636 0.0909  plane waves:     169
 k-point 49 :  -0.3636 0.3636 0.0909  plane waves:     173
 k-point 50 :  -0.2727 0.3636 0.0909  plane waves:     169
 k-point 51 :  -0.4545 0.4545 0.0909  plane waves:     171
 k-point 52 :  -0.3636 0.4545 0.0909  plane waves:     172
 k-point 53 :  -0.4545 0.3636 0.1818  plane waves:     167
 k-point 54 :  -0.3636 0.3636 0.1818  plane waves:     169
 k-point 55 :  -0.3636 0.4545 0.1818  plane waves:     166
 k-point 56 :  -0.2727 0.4545 0.1818  plane waves:     169

 maximum and minimum number of plane-waves per node :       178      162

 maximum number of plane-waves:       178
 maximum index in each direction: 
   IXMAX=    4   IYMAX=    3   IZMAX=    3
   IXMIN=   -4   IYMIN=   -4   IZMIN=   -3

 WARNING: aliasing errors must be expected set NGX to  18 to avoid them
 WARNING: aliasing errors must be expected set NGY to  16 to avoid them
 WARNING: aliasing errors must be expected set NGZ to  14 to avoid them
 aliasing errors are usually negligible using standard VASP settings
 and one can safely disregard these warnings

 serial   3D FFT for wavefunctions
 parallel 3D FFT for charge:
    minimum data exchange during FFTs selected (reduces bandwidth)


 total amount of memory used by VASP on root node    32917. kBytes
========================================================================

   base      :      30000. kBytes
   nonl-proj :        640. kBytes
   fftplans  :        504. kBytes
   grid      :        771. kBytes
   one-center:          3. kBytes
   wavefun   :        999. kBytes
 
     INWAV:  cpu time    0.00: real time    0.00
 Broyden mixing: mesh for mixing (old mesh)
   NGX =  7   NGY =  7   NGZ =  7
  (NGX  = 24   NGY  = 24   NGZ  = 24)
  gives a total of    343 points

 initial charge density was supplied:
 charge density of overlapping atoms calculated
 number of electron       4.0000000 magnetization 
 keeping initial charge density in first step


--------------------------------------------------------------------------------------------------------


 Maximum index for augmentation-charges         2779 (set IRDMAX)


--------------------------------------------------------------------------------------------------------


 First call to EWALD:  gamma=   0.654
 Maximum number of real-space cells 3x 3x 3
 Maximum number of reciprocal cells 3x 3x 3

 FEWALD executed in parallel
    FEWALD:  cpu time    0.00: real time    0.00


----------------------------------------- Iteration    1(   1)  ---------------------------------------


    POTLOK:  cpu time    0.00: real time    0.00
    SETDIJ:  cpu time    0.00: real time    0.00
     EDDAV:  cpu time    0.11: real time    0.11
       DOS:  cpu time    0.00: real time    0.00
    --------------------------------------------
      LOOP:  cpu time    0.12: real time    0.12

 eigenvalue-minimisations  :   732
 total energy-change (2. order) :-0.3291597E+01  (-0.1022323E+03)
 number of electron       4.0000000 magnetization 
 augmentation part        4.0000000 magnetization 

 Free energy of the ion-electron system (eV)
  ---------------------------------------------------
  alpha Z        PSCENC =         1.19262302
  Ewald energy   TEWEN  =      -122.82983823
  -Hartree energ DENC   =        -1.68237371
  -exchange      EXHF   =         0.00000000
  -V(xc)+E(xc)   XCENC  =        -9.51911835
  PAW double counting   =        33.55897582      -16.14130609
  entropy T*S    EENTRO =        -0.00218439
  eigenvalues    EBANDS =         8.70400397
  atomic energy  EATOM  =       103.42762056
  ---------------------------------------------------
  free energy    TOTEN  =        -3.29159739 eV

  energy without entropy =       -3.28941300  energy(sigma->0) =       -3.29050519


--------------------------------------------------------------------------------------------------------




----------------------------------------- Iteration    1(   2)  ---------------------------------------


     EDDAV:  cpu time    0.14: real time    0.14
       DOS:  cpu time    0.00: real time    0.00
    --------------------------------------------
      LOOP:  cpu time    0.15: real time    0.15

 eigenvalue-minimisations  :   972
 total energy-change (2. order) :-0.1819515E+01  (-0.1688495E+01)
 number of electron       4.0000000 magnetization 
 augmentation part        4.0000000 magnetization 

 Free energy of the ion-electron system (eV)
  ---------------------------------------------------
  alpha Z        PSCENC =         1.19262302
  Ewald energy   TEWEN  =      -122.82983823
  -Hartree energ DENC   =        -1.68237371
  -exchange      EXHF   =         0.00000000
  -V(xc)+E(xc)   XCENC  =        -9.51911835
  PAW double counting   =        33.55897582      -16.14130609
  entropy T*S    EENTRO =        -0.00335404
  eigenvalues    EBANDS =         6.88565890
  atomic energy  EATOM  =       103.42762056
  ---------------------------------------------------
  free energy    TOTEN  =        -5.11111211 eV

  energy without entropy =       -5.10775807  energy(sigma->0) =       -5.10943509


--------------------------------------------------------------------------------------------------------




----------------------------------------- Iteration    1(   3)  ---------------------------------------


     EDDAV:  cpu time    0.12: real time    0.12
       DOS:  cpu time    0.00: real time    0.00
    --------------------------------------------
      LOOP:  cpu time    0.12: real time    0.13

 eigenvalue-minimisations  :   810
 total energy-change (2. order) :-0.2006564E-01  (-0.1982989E-01)
 number of electron       4.0000000 magnetization 
 augmentation part        4.0000000 magnetization 

 Free energy of the ion-electron system (eV)
  ---------------------------------------------------
  alpha Z        PSCENC =         1.19262302
  Ewald energy   TEWEN  =      -122.82983823
  -Hartree energ DENC   =        -1.68237371
  -exchange      EXHF   =         0.00000000
  -V(xc)+E(xc)   XCENC  =        -9.51911835
  PAW double counting   =        33.55897582      -16.14130609
  entropy T*S    EENTRO =        -0.00390922
  eigenvalues    EBANDS =         6.86614843
  atomic energy  EATOM  =       103.42762056
  ---------------------------------------------------
  free energy    TOTEN  =        -5.13117775 eV

  energy without entropy =       -5.12726853  energy(sigma->0) =       -5.12922314


--------------------------------------------------------------------------------------------------------




----------------------------------------- Iteration    1(   4)  ---------------------------------------


     EDDAV:  cpu time    0.15: real time    0.15
       DOS:  cpu time    0.00: real time    0.00
    --------------------------------------------
      LOOP:  cpu time    0.15: real time    0.15

 eigenvalue-minimisations  :  1002
 total energy-change (2. order) :-0.2826711E-04  (-0.2826654E-04)
 number of electron       4.0000000 magnetization 
 augmentation part        4.0000000 magnetization 

 Free energy of the ion-electron system (eV)
  ---------------------------------------------------
  alpha Z        PSCENC =         1.19262302
  Ewald energy   TEWEN  =      -122.82983823
  -Hartree energ DENC   =        -1.68237371
  -exchange      EXHF   =         0.00000000
  -V(xc)+E(xc)   XCENC  =        -9.51911835
  PAW double counting   =        33.55897582      -16.14130609
  entropy T*S    EENTRO =        -0.00390985
  eigenvalues    EBANDS =         6.86612080
  atomic energy  EATOM  =       103.42762056
  ---------------------------------------------------
  free energy    TOTEN  =        -5.13120602 eV

  energy without entropy =       -5.12729617  energy(sigma->0) =       -5.12925110


--------------------------------------------------------------------------------------------------------




----------------------------------------- Iteration    1(   5)  ---------------------------------------


     EDDAV:  cpu time    0.12: real time    0.12
       DOS:  cpu time    0.00: real time    0.00
    CHARGE:  cpu time    0.00: real time    0.00
    MIXING:  cpu time    0.00: real time    0.00
    --------------------------------------------
      LOOP:  cpu time    0.13: real time    0.15

 eigenvalue-minimisations  :   786
 total energy-change (2. order) :-0.4413221E-07  (-0.4514899E-07)
 number of electron       4.0000003 magnetization 
 augmentation part       -0.2670203 magnetization 

 Broyden mixing:
  rms(total) = 0.63007E-01    rms(broyden)= 0.62985E-01
  rms(prec ) = 0.25044E+00
  weight for this iteration     100.00

 Free energy of the ion-electron system (eV)
  ---------------------------------------------------
  alpha Z        PSCENC =         1.19262302
  Ewald energy   TEWEN  =      -122.82983823
  -Hartree energ DENC   =        -1.68237371
  -exchange      EXHF   =         0.00000000
  -V(xc)+E(xc)   XCENC  =        -9.51911835
  PAW double counting   =        33.55897582      -16.14130609
  entropy T*S    EENTRO =        -0.00390985
  eigenvalues    EBANDS =         6.86612075
  atomic energy  EATOM  =       103.42762056
  ---------------------------------------------------
  free energy    TOTEN  =        -5.13120606 eV

  energy without entropy =       -5.12729621  energy(sigma->0) =       -5.12925114


--------------------------------------------------------------------------------------------------------




----------------------------------------- Iteration    1(   6)  ---------------------------------------


    POTLOK:  cpu time    0.00: real time    0.00
    SETDIJ:  cpu time    0.00: real time    0.00
     EDDAV:  cpu time    0.11: real time    0.12
       DOS:  cpu time    0.00: real time    0.00
    CHARGE:  cpu time    0.01: real time    0.00
    MIXING:  cpu time    0.00: real time    0.00
    --------------------------------------------
      LOOP:  cpu time    0.13: real time    0.14

 eigenvalue-minimisations  :   768
 total energy-change (2. order) : 0.1236213E-01  (-0.6795930E-03)
 number of electron       4.0000003 magnetization 
 augmentation part       -0.2699502 magnetization 

 Broyden mixing:
  rms(total) = 0.36004E-01    rms(broyden)= 0.36002E-01
  rms(prec ) = 0.14302E+00
  weight for this iteration     100.00

 eigenvalues of (default mixing * dielectric matrix)
  average eigenvalue GAMMA=   2.3158
  2.3158

 Free energy of the ion-electron system (eV)
  ---------------------------------------------------
  alpha Z        PSCENC =         1.19262302
  Ewald energy   TEWEN  =      -122.82983823
  -Hartree energ DENC   =        -1.53005980
  -exchange      EXHF   =         0.00000000
  -V(xc)+E(xc)   XCENC  =        -9.51784019
  PAW double counting   =        33.30291157      -15.87198310
  entropy T*S    EENTRO =        -0.00394777
  eigenvalues    EBANDS =         6.71167000
  atomic energy  EATOM  =       103.42762056
  ---------------------------------------------------
  free energy    TOTEN  =        -5.11884393 eV

  energy without entropy =       -5.11489616  energy(sigma->0) =       -5.11687005


--------------------------------------------------------------------------------------------------------




----------------------------------------- Iteration    1(   7)  ---------------------------------------


    POTLOK:  cpu time    0.00: real time    0.00
    SETDIJ:  cpu time    0.00: real time    0.00
     EDDAV:  cpu time    0.10: real time    0.11
       DOS:  cpu time    0.00: real time    0.00
    CHARGE:  cpu time    0.00: real time    0.00
    MIXING:  cpu time    0.00: real time    0.00
    --------------------------------------------
      LOOP:  cpu time    0.12: real time    0.14

 eigenvalue-minimisations  :   702
 total energy-change (2. order) : 0.5701703E-02  (-0.1137583E-02)
 number of electron       4.0000003 magnetization 
 augmentation part       -0.2738330 magnetization 

 Broyden mixing:
  rms(total) = 0.28226E-02    rms(broyden)= 0.28125E-02
  rms(prec ) = 0.90907E-02
  weight for this iteration     100.00

 eigenvalues of (default mixing * dielectric matrix)
  average eigenvalue GAMMA=   2.4009
  2.2129  2.5890

 Free energy of the ion-electron system (eV)
  ---------------------------------------------------
  alpha Z        PSCENC =         1.19262302
  Ewald energy   TEWEN  =      -122.82983823
  -Hartree energ DENC   =        -1.35082349
  -exchange      EXHF   =         0.00000000
  -V(xc)+E(xc)   XCENC  =        -9.51200811
  PAW double counting   =        33.11234040      -15.66890160
  entropy T*S    EENTRO =        -0.00400236
  eigenvalues    EBANDS =         6.51984758
  atomic energy  EATOM  =       103.42762056
  ---------------------------------------------------
  free energy    TOTEN  =        -5.11314223 eV

  energy without entropy =       -5.10913987  energy(sigma->0) =       -5.11114105


--------------------------------------------------------------------------------------------------------




----------------------------------------- Iteration    1(   8)  ---------------------------------------


    POTLOK:  cpu time    0.00: real time    0.00
    SETDIJ:  cpu time    0.00: real time    0.00
     EDDAV:  cpu time    0.12: real time    0.12
       DOS:  cpu time    0.00: real time    0.00
    --------------------------------------------
      LOOP:  cpu time    0.12: real time    0.14

 eigenvalue-minimisations  :   762
 total energy-change (2. order) : 0.2675777E-04  (-0.4579566E-05)
 number of electron       4.0000003 magnetization 
 augmentation part       -0.2738330 magnetization 

 Free energy of the ion-electron system (eV)
  ---------------------------------------------------
  alpha Z        PSCENC =         1.19262302
  Ewald energy   TEWEN  =      -122.82983823
  -Hartree energ DENC   =        -1.35645963
  -exchange      EXHF   =         0.00000000
  -V(xc)+E(xc)   XCENC  =        -9.51050910
  PAW double counting   =        33.30233612      -15.86531883
  entropy T*S    EENTRO =        -0.00400266
  eigenvalues    EBANDS =         6.53043327
  atomic energy  EATOM  =       103.42762056
  ---------------------------------------------------
  free energy    TOTEN  =        -5.11311547 eV

  energy without entropy =       -5.10911281  energy(sigma->0) =       -5.11111414


--------------------------------------------------------------------------------------------------------




 average (electrostatic) potential at core
  the test charge radii are     0.9892
  (the norm of the test charge is              1.0000)
       1 -85.2864
 
 
 
 E-fermi :   6.3114     XC(G=0): -10.0294     alpha+bet :-12.1755


 k-point     1 :       0.0000    0.0000    0.0000
  band No.  band energies     occupation 
      1      -5.3968      2.00000
      2      14.0700      0.00000
      3      14.0701      0.00000
      4      14.0701      0.00000
      5      17.2868      0.00000
      6      17.2868      0.00000

 k-point     2 :       0.0909    0.0000    0.0000
  band No.  band energies     occupation 
      1      -5.2060      2.00000
      2      12.4383      0.00000
      3      13.7588      0.00000
      4      13.7588      0.00000
      5      17.4191      0.00000
      6      17.7874      0.00000

 k-point     3 :       0.1818    0.0000    0.0000
  band No.  band energies     occupation 
      1      -4.6356      2.00000
      2       9.5712      0.00000
      3      13.2058      0.00000
      4      13.2058      0.00000
      5      17.2256      0.00000
      6      18.4287      0.00000

 k-point     4 :       0.2727    0.0000    0.0000
  band No.  band energies     occupation 
      1      -3.6938      2.00000
      2       6.6778      0.00000
      3      12.7564      0.00000
      4      12.7565      0.00000
      5      16.9468      0.00000
      6      17.8703      0.00000

 k-point     5 :       0.3636    0.0000    0.0000
  band No.  band energies     occupation 
      1      -2.4048      2.00000
      2       4.0271      2.00000
      3      12.4849      0.00000
      4      12.4849      0.00000
      5      16.7716      0.00000
      6      17.0325      0.00000

 k-point     6 :       0.4545    0.0000    0.0000
  band No.  band energies     occupation 
      1      -0.9109      2.00000
      2       1.8427      2.00000
      3      12.3683      0.00000
      4      12.3684      0.00000
      5      16.5284      0.00000
      6      16.5287      0.00000

 k-point     7 :       0.0909    0.0909    0.0000
  band No.  band energies     occupation 
      1      -5.1424      2.00000
      2      13.0016      0.00000
      3      13.0016      0.00000
      4      13.3770      0.00000
      5      16.1462      0.00000
      6      18.6552      0.00000

 k-point     8 :       0.1818    0.0909    0.0000
  band No.  band energies     occupation 
      1      -4.6983      2.00000
      2      10.6460      0.00000
      3      12.2780      0.00000
      4      13.1389      0.00000
      5      16.1385      0.00000
      6      18.7808      0.00000

 k-point     9 :       0.2727    0.0909    0.0000
  band No.  band energies     occupation 
      1      -3.8798      2.00000
      2       7.7592      0.00000
      3      11.7815      0.00000
      4      12.5402      0.00000
      5      16.2127      0.00000
      6      18.1986      0.00000

 k-point    10 :       0.3636    0.0909    0.0000
  band No.  band energies     occupation 
      1      -2.7029      2.00000
      2       5.0249      2.00000
      3      11.5626      0.00000
      4      11.9080      0.00000
      5      15.6722      0.00000
      6      18.1045      0.00000

 k-point    11 :       0.4545    0.0909    0.0000
  band No.  band energies     occupation 
      1      -1.2367      2.00000
      2       2.6456      2.00000
      3      11.3334      0.00000
      4      11.6224      0.00000
      5      15.4366      0.00000
      6      17.6997      0.00000

 k-point    12 :      -0.4545    0.0909    0.0000
  band No.  band energies     occupation 
      1      -0.3841      2.00000
      2       1.5636      2.00000
      3      10.8903      0.00000
      4      11.9368      0.00000
      5      15.6875      0.00000
      6      17.1991      0.00000

 k-point    13 :      -0.3636    0.0909    0.0000
  band No.  band energies     occupation 
      1      -1.7461      2.00000
      2       3.3855      2.00000
      3      10.6615      0.00000
      4      12.4468      0.00000
      5      16.3749      0.00000
      6      17.1112      0.00000

 k-point    14 :      -0.2727    0.0909    0.0000
  band No.  band energies     occupation 
      1      -3.1335      2.00000
      2       5.9107      2.00000
      3      10.7015      0.00000
      4      13.0677      0.00000
      5      17.3825      0.00000
      6      17.4938      0.00000

 k-point    15 :      -0.1818    0.0909    0.0000
  band No.  band energies     occupation 
      1      -4.1938      2.00000
      2       8.7225      0.00000
      3      11.0365      0.00000
      4      13.6825      0.00000
      5      17.8302      0.00000
      6      18.1005      0.00000

 k-point    16 :      -0.0909    0.0909    0.0000
  band No.  band energies     occupation 
      1      -4.8886      2.00000
      2      11.4554      0.00000
      3      11.8061      0.00000
      4      14.0522      0.00000
      5      17.6163      0.00000
      6      17.7833      0.00000

 k-point    17 :       0.1818    0.1818    0.0000
  band No.  band energies     occupation 
      1      -4.3814      2.00000
      2      11.4321      0.00000
      3      11.4322      0.00000
      4      11.6864      0.00000
      5      14.3854      0.00000
      6      16.8912      0.00000

 k-point    18 :       0.2727    0.1818    0.0000
  band No.  band energies     occupation 
      1      -3.6885      2.00000
      2       9.0334      0.00000
      3      10.8395      0.00000
      4      11.1935      0.00000
      5      14.4098      0.00000
      6      16.0237      0.00000

 k-point    19 :       0.3636    0.1818    0.0000
  band No.  band energies     occupation 
      1      -2.6313      2.00000
      2       6.3224      0.87645
      3      10.2279      0.00000
      4      10.5467      0.00000
      5      14.1123      0.00000
      6      17.3235      0.00000

 k-point    20 :       0.4545    0.1818    0.0000
  band No.  band energies     occupation 
      1      -1.2488      2.00000
      2       3.8402      2.00000
      3       9.2991      0.00000
      4      10.5689      0.00000
      5      13.9560      0.00000
      6      19.0867      0.00000

 k-point    21 :      -0.4545    0.1818    0.0000
  band No.  band energies     occupation 
      1       0.1036      2.00000
      2       2.0400      2.00000
      3       8.5737      0.00000
      4      10.8961      0.00000
      5      14.2372      0.00000
      6      19.1223      0.00000

 k-point    22 :      -0.3636    0.1818    0.0000
  band No.  band energies     occupation 
      1      -0.7494      2.00000
      2       3.1250      2.00000
      3       8.1298      0.00000
      4      11.5063      0.00000
      5      14.9338      0.00000
      6      18.7389      0.00000

 k-point    23 :      -0.2727    0.1818    0.0000
  band No.  band energies     occupation 
      1      -2.2077      2.00000
      2       5.4874      2.00000
      3       8.0070      0.00000
      4      12.3336      0.00000
      5      15.9966      0.00000
      6      18.7249      0.00000

 k-point    24 :      -0.1818    0.1818    0.0000
  band No.  band energies     occupation 
      1      -3.3792      2.00000
      2       8.0447      0.00000
      3       8.3582      0.00000
      4      13.2140      0.00000
      5      17.3201      0.00000
      6      18.9243      0.00000

 k-point    25 :       0.2727    0.2727    0.0000
  band No.  band energies     occupation 
      1      -3.1222      2.00000
      2       9.2819      0.00000
      3      10.1441      0.00000
      4      10.1441      0.00000
      5      12.9289      0.00000
      6      14.1983      0.00000

 k-point    26 :       0.3636    0.2727    0.0000
  band No.  band energies     occupation 
      1      -2.1890      2.00000
      2       7.4567      0.00000
      3       8.8298      0.00000
      4       9.7522      0.00000
      5      12.9114      0.00000
      6      14.3825      0.00000

 k-point    27 :       0.4545    0.2727    0.0000
  band No.  band energies     occupation 
      1      -0.9147      2.00000
      2       5.2293      2.00000
      3       7.4008      0.00000
      4       9.6834      0.00000
      5      12.7996      0.00000
      6      16.4747      0.00000

 k-point    28 :      -0.4545    0.2727    0.0000
  band No.  band energies     occupation 
      1       0.5516      2.00000
      2       3.2047      2.00000
      3       6.3777      0.34799
      4       9.9370      0.00000
      5      13.0351      0.00000
      6      18.9625      0.00000

 k-point    29 :      -0.3636    0.2727    0.0000
  band No.  band energies     occupation 
      1       0.5167      2.00000
      2       3.2814      2.00000
      3       5.7243      2.00000
      4      10.5018      0.00000
      5      13.6702      0.00000
      6      20.9657      0.00000

 k-point    30 :      -0.2727    0.2727    0.0000
  band No.  band energies     occupation 
      1      -0.9438      2.00000
      2       5.3348      2.00000
      3       5.5255      2.00000
      4      11.3399      0.00000
      5      14.6803      0.00000
      6      20.3541      0.00000

 k-point    31 :       0.3636    0.3636    0.0000
  band No.  band energies     occupation 
      1      -1.3818      2.00000
      2       6.3853      0.29603
      3       9.2575      0.00000
      4       9.2575      0.00000
      5      11.9248      0.00000
      6      12.6446      0.00000

 k-point    32 :       0.4545    0.3636    0.0000
  band No.  band energies     occupation 
      1      -0.2287      2.00000
      2       4.9610      2.00000
      3       7.6280      0.00000
      4       9.0861      0.00000
      5      12.0198      0.00000
      6      13.5516      0.00000

 k-point    33 :      -0.4545    0.3636    0.0000
  band No.  band energies     occupation 
      1       1.1786      2.00000
      2       3.7573      2.00000
      3       5.5520      2.00000
      4       9.2431      0.00000
      5      12.1958      0.00000
      6      16.0288      0.00000

 k-point    34 :      -0.3636    0.3636    0.0000
  band No.  band energies     occupation 
      1       1.7339      2.00000
      2       3.5883      2.00000
      3       4.1879      2.00000
      4       9.7231      0.00000
      5      12.7469      0.00000
      6      18.8410      0.00000

 k-point    35 :       0.4545    0.4545    0.0000
  band No.  band energies     occupation 
      1       0.7890      2.00000
      2       3.5157      2.00000
      3       8.8091      0.00000
      4       8.8091      0.00000
      5      11.4211      0.00000
      6      11.9655      0.00000

 k-point    36 :      -0.4545    0.4545    0.0000
  band No.  band energies     occupation 
      1       1.8034      2.00000
      2       2.6109      2.00000
      3       7.3286      0.00000
      4       8.8616      0.00000
      5      11.7256      0.00000
      6      13.2832      0.00000

 k-point    37 :       0.2727    0.1818    0.0909
  band No.  band energies     occupation 
      1      -4.1298      2.00000
      2       9.7494      0.00000
      3      10.1219      0.00000
      4      12.9679      0.00000
      5      16.1148      0.00000
      6      17.5473      0.00000

 k-point    38 :       0.3636    0.1818    0.0909
  band No.  band energies     occupation 
      1      -3.1916      2.00000
      2       7.1017      0.00000
      3       9.5105      0.00000
      4      12.2163      0.00000
      5      16.1678      0.00000
      6      17.7670      0.00000

 k-point    39 :       0.4545    0.1818    0.0909
  band No.  band energies     occupation 
      1      -1.9075      2.00000
      2       4.4901      2.00000
      3       9.3506      0.00000
      4      11.3478      0.00000
      5      15.8476      0.00000
      6      17.6584      0.00000

 k-point    40 :      -0.4545    0.1818    0.0909
  band No.  band energies     occupation 
      1      -0.4203      2.00000
      2       2.3210      2.00000
      3       9.3941      0.00000
      4      10.7421      0.00000
      5      15.7814      0.00000
      6      17.1072      0.00000

 k-point    41 :       0.3636    0.2727    0.0909
  band No.  band energies     occupation 
      1      -2.8756      2.00000
      2       8.2031      0.00000
      3       8.7579      0.00000
      4      10.5894      0.00000
      5      14.7612      0.00000
      6      15.3481      0.00000

 k-point    42 :       0.4545    0.2727    0.0909
  band No.  band energies     occupation 
      1      -1.7077      2.00000
      2       5.8594      2.00000
      3       8.1235      0.00000
      4       9.6054      0.00000
      5      14.7655      0.00000
      6      16.9173      0.00000

 k-point    43 :      -0.4545    0.2727    0.0909
  band No.  band energies     occupation 
      1      -0.2558      2.00000
      2       3.5620      2.00000
      3       7.6561      0.00000
      4       9.1794      0.00000
      5      14.8506      0.00000
      6      18.6141      0.00000

 k-point    44 :      -0.3636    0.2727    0.0909
  band No.  band energies     occupation 
      1       0.5759      2.00000
      2       2.5196      2.00000
      3       7.1338      0.00000
      4       9.4572      0.00000
      5      15.2708      0.00000
      6      18.4688      0.00000

 k-point    45 :      -0.2727    0.2727    0.0909
  band No.  band energies     occupation 
      1      -0.7692      2.00000
      2       4.3172      2.00000
      3       6.8174      0.00000
      4      10.1860      0.00000
      5      15.9728      0.00000
      6      18.2443      0.00000

 k-point    46 :      -0.1818    0.2727    0.0909
  band No.  band energies     occupation 
      1      -2.1412      2.00000
      2       6.6400      0.00000
      3       6.9527      0.00000
      4      11.2053      0.00000
      5      16.7491      0.00000
      6      17.8738      0.00000

 k-point    47 :       0.4545    0.3636    0.0909
  band No.  band energies     occupation 
      1      -1.1449      2.00000
      2       6.2901      1.23663
      3       7.8239      0.00000
      4       8.4861      0.00000
      5      13.8155      0.00000
      6      14.1203      0.00000

 k-point    48 :      -0.4545    0.3636    0.0909
  band No.  band energies     occupation 
      1       0.2134      2.00000
      2       4.7492      2.00000
      3       6.2306      1.74656
      4       8.1428      0.00000
      5      13.9893      0.00000
      6      16.2944      0.00000

 k-point    49 :      -0.3636    0.3636    0.0909
  band No.  band energies     occupation 
      1       1.4906      2.00000
      2       3.3535      2.00000
      3       5.1224      2.00000
      4       8.4581      0.00000
      5      14.3617      0.00000
      6      18.8796      0.00000

 k-point    50 :      -0.2727    0.3636    0.0909
  band No.  band energies     occupation 
      1       0.6336      2.00000
      2       4.4883      2.00000
      3       4.5595      2.00000
      4       9.1634      0.00000
      5      15.0669      0.00000
      6      20.2803      0.00000

 k-point    51 :      -0.4545    0.4545    0.0909
  band No.  band energies     occupation 
      1       0.9993      2.00000
      2       3.6959      2.00000
      3       7.3524      0.00000
      4       7.6914      0.00000
      5      13.3382      0.00000
      6      13.5618      0.00000

 k-point    52 :      -0.3636    0.4545    0.0909
  band No.  band energies     occupation 
      1       2.0606      2.00000
      2       3.1001      2.00000
      3       5.4769      2.00000
      4       7.8196      0.00000
      5      13.7337      0.00000
      6      16.0747      0.00000

 k-point    53 :      -0.4545    0.3636    0.1818
  band No.  band energies     occupation 
      1      -0.4485      2.00000
      2       5.5105      2.00000
      3       5.9967      1.99999
      4       8.3344      0.00000
      5      16.5606      0.00000
      6      17.0055      0.00000

 k-point    54 :      -0.3636    0.3636    0.1818
  band No.  band energies     occupation 
      1       0.9966      2.00000
      2       3.6879      2.00000
      3       5.8394      2.00000
      4       7.5390      0.00000
      5      16.6905      0.00000
      6      18.2914      0.00000

 k-point    55 :      -0.3636    0.4545    0.1818
  band No.  band energies     occupation 
      1       1.5714      2.00000
      2       4.1049      2.00000
      3       5.5160      2.00000
      4       6.4473      0.05458
      5      16.2935      0.00000
      6      16.5589      0.00000

 k-point    56 :      -0.2727    0.4545    0.1818
  band No.  band energies     occupation 
      1       2.1414      2.00000
      2       4.0728      2.00000
      3       4.4168      2.00000
      4       6.5551      0.00057
      5      16.7545      0.00000
      6      18.9286      0.00000


--------------------------------------------------------------------------------------------------------


 soft charge-density along one line, spin component           1
         0         1         2         3         4         5         6         7         8         9
 total charge-density along one line
 
 pseudopotential strength for first ion, spin component:           1
 19.432  -0.000   0.000   0.000  -0.000  -0.000  -0.000   0.000
 -0.000   0.006  -0.000  -0.000   0.000   0.000   0.000  -0.000
  0.000  -0.000   4.338  -0.000  -0.000  -0.004   0.000   0.000
  0.000  -0.000  -0.000   4.338  -0.000   0.000  -0.004   0.000
 -0.000   0.000  -0.000  -0.000   4.338   0.000   0.000  -0.004
 -0.000   0.000  -0.004   0.000   0.000   0.005  -0.000  -0.000
 -0.000   0.000   0.000  -0.004   0.000  -0.000   0.005  -0.000
  0.000  -0.000   0.000   0.000  -0.004  -0.000  -0.000   0.005
 total augmentation occupancy for first ion, spin component:           1
  1.896  -0.070   0.000   0.000   0.000   0.000   0.000   0.000
 -0.070   0.650   0.000   0.000   0.000   0.000   0.000   0.000
  0.000   0.000   0.653  -0.000   0.000  -0.335   0.000   0.000
  0.000   0.000   0.000   0.653  -0.000   0.000  -0.335   0.000
  0.000   0.000   0.000  -0.000   0.653  -0.000   0.000  -0.335
  0.000   0.000  -0.335  -0.000   0.000   0.216   0.000  -0.000
  0.000   0.000   0.000  -0.335  -0.000  -0.000   0.216  -0.000
  0.000   0.000   0.000   0.000  -0.335   0.000  -0.000   0.216


------------------------ aborting loop because EDIFF is reached ----------------------------------------


    CHARGE:  cpu time    0.00: real time    0.00
    FORLOC:  cpu time    0.00: real time    0.00
    FORNL :  cpu time    0.01: real time    0.01
    STRESS:  cpu time    0.04: real time    0.04
    FORCOR:  cpu time    0.00: real time    0.00
    FORHAR:  cpu time    0.00: real time    0.00
    MIXING:  cpu time    0.00: real time    0.00
    OFIELD:  cpu time    0.00: real time    0.00

  FORCE on cell =-STRESS in cart. coord.  units (eV):
  Direction    XX          YY          ZZ          XY          YZ          ZX
  --------------------------------------------------------------------------------------
  Alpha Z     1.19262     1.19262     1.19262
  Ewald     -40.94328   -40.94328   -40.94328     0.00000     0.00000     0.00000
  Hartree     0.45231     0.45231     0.45231     0.00000     0.00000     0.00000
  E(xc)     -12.21115   -12.21115   -12.21115    -0.00000    -0.00000    -0.00000
  Local      -8.75748    -8.75748    -8.75748     0.00004     0.00004     0.00004
  n-local    40.12030    39.81610    40.48359     0.38192    -0.06115    -0.28494
  augment    -7.10924    -7.10924    -7.10924    -0.00004    -0.00004    -0.00004
  Kinetic    19.19978    33.63127    22.94162     8.29448    -6.72710   -12.25439
  Fock        0.00000     0.00000     0.00000     0.00000     0.00000     0.00000
  -------------------------------------------------------------------------------------
  Total      -1.97866    -1.97866    -1.97866     0.00000     0.00000     0.00000
  in kB    -159.49076  -159.49076  -159.49076     0.00000     0.00000     0.00000
  external pressure =     -159.49 kB  Pullay stress =        0.00 kB


 VOLUME and BASIS-vectors are now :
 -----------------------------------------------------------------------------
  energy-cutoff  :      240.00
  volume of cell :       19.88
      direct lattice vectors                 reciprocal lattice vectors
     2.150000000  2.150000000  0.000000000     0.232558140  0.232558140 -0.232558140
     0.000000000  2.150000000  2.150000000    -0.232558140  0.232558140  0.232558140
     2.150000000  0.000000000  2.150000000     0.232558140 -0.232558140  0.232558140

  length of vectors
     3.040559159  3.040559159  3.040559159     0.402802513  0.402802513  0.402802513


 FORCES acting on ions
    electron-ion (+dipol)            ewald-force                    non-local-force                 convergence-correction
 -----------------------------------------------------------------------------------------------
   0.924E-15 0.200E-14 -.879E-15   -.137E-15 -.114E-15 -.230E-16   -.529E-22 0.529E-22 0.529E-22   -.249E-16 -.766E-16 0.460E-16
 -----------------------------------------------------------------------------------------------
   0.924E-15 0.200E-14 -.879E-15   -.137E-15 -.114E-15 -.230E-16   -.529E-22 0.529E-22 0.529E-22   -.249E-16 -.766E-16 0.460E-16
 
 
 POSITION                                       TOTAL-FORCE (eV/Angst)
 -----------------------------------------------------------------------------------
      0.00000      0.00000      0.00000         0.000000      0.000000      0.000000
 -----------------------------------------------------------------------------------
    total drift:                                0.000000      0.000000     -0.000000


--------------------------------------------------------------------------------------------------------



  FREE ENERGIE OF THE ION-ELECTRON SYSTEM (eV)
  ---------------------------------------------------
  free  energy   TOTEN  =        -5.11311547 eV

  energy  without entropy=       -5.10911281  energy(sigma->0) =       -5.11111414
 


--------------------------------------------------------------------------------------------------------


    POTLOK:  cpu time    0.00: real time    0.00


--------------------------------------------------------------------------------------------------------




--------------------------------------------------------------------------------------------------------


    WAVPRE:  cpu time    0.00: real time    0.00
 FEWALD executed in parallel
    FEWALD:  cpu time    0.00: real time    0.00
    GENKIN:  cpu time    0.00: real time    0.00
    ORTHCH:  cpu time    0.00: real time    0.00
     LOOP+:  cpu time    1.13: real time    1.42


----------------------------------------- Iteration    2(   1)  ---------------------------------------


    POTLOK:  cpu time    0.00: real time    0.00
    SETDIJ:  cpu time    0.00: real time    0.00
     EDDAV:  cpu time    0.11: real time    0.11
       DOS:  cpu time    0.00: real time    0.00
    CHARGE:  cpu time    0.00: real time    0.00
    MIXING:  cpu time    0.00: real time    0.00
    --------------------------------------------
      LOOP:  cpu time    0.12: real time    0.13

 eigenvalue-minimisations  :   726
 total energy-change (2. order) :-0.6624281E+00  (-0.1203262E+01)
 number of electron       3.9999999 magnetization 
 augmentation part       -0.2441266 magnetization 

 Broyden mixing:
  rms(total) = 0.23647E+00    rms(broyden)= 0.23621E+00
  rms(prec ) = 0.97026E+00
  weight for this iteration     100.00

 Free energy of the ion-electron system (eV)
  ---------------------------------------------------
  alpha Z        PSCENC =         1.61143781
  Ewald energy   TEWEN  =      -135.79194248
  -Hartree energ DENC   =        -1.49997196
  -exchange      EXHF   =         0.00000000
  -V(xc)+E(xc)   XCENC  =        -8.94991117
  PAW double counting   =        33.31596128      -15.87950622
  entropy T*S    EENTRO =        -0.00275426
  eigenvalues    EBANDS =        17.99349607
  atomic energy  EATOM  =       103.42762056
  ---------------------------------------------------
  free energy    TOTEN  =        -5.77557036 eV

  energy without entropy =       -5.77281610  energy(sigma->0) =       -5.77419323


--------------------------------------------------------------------------------------------------------




----------------------------------------- Iteration    2(   2)  ---------------------------------------


    POTLOK:  cpu time    0.00: real time    0.00
    SETDIJ:  cpu time    0.00: real time    0.00
     EDDAV:  cpu time    0.12: real time    0.12
       DOS:  cpu time    0.00: real time    0.00
    CHARGE:  cpu time    0.00: real time    0.00
    MIXING:  cpu time    0.00: real time    0.00
    --------------------------------------------
      LOOP:  cpu time    0.13: real time    0.19

 eigenvalue-minimisations  :   804
 total energy-change (2. order) : 0.1767785E+00  (-0.9088624E-02)
 number of electron       3.9999999 magnetization 
 augmentation part       -0.2508908 magnetization 

 Broyden mixing:
  rms(total) = 0.13591E+00    rms(broyden)= 0.13590E+00
  rms(prec ) = 0.56232E+00
  weight for this iteration     100.00

 eigenvalues of (default mixing * dielectric matrix)
  average eigenvalue GAMMA=   2.3414
  2.3414

 Free energy of the ion-electron system (eV)
  ---------------------------------------------------
  alpha Z        PSCENC =         1.61143781
  Ewald energy   TEWEN  =      -135.79194248
  -Hartree energ DENC   =        -0.98122428
  -exchange      EXHF   =         0.00000000
  -V(xc)+E(xc)   XCENC  =        -8.91456149
  PAW double counting   =        33.29416921      -15.85450334
  entropy T*S    EENTRO =        -0.00281217
  eigenvalues    EBANDS =        17.61302434
  atomic energy  EATOM  =       103.42762056
  ---------------------------------------------------
  free energy    TOTEN  =        -5.59879182 eV

  energy without entropy =       -5.59597965  energy(sigma->0) =       -5.59738573


--------------------------------------------------------------------------------------------------------




----------------------------------------- Iteration    2(   3)  ---------------------------------------


    POTLOK:  cpu time    0.00: real time    0.00
    SETDIJ:  cpu time    0.00: real time    0.00
     EDDAV:  cpu time    0.11: real time    0.11
       DOS:  cpu time    0.00: real time    0.00
    CHARGE:  cpu time    0.00: real time    0.00
    MIXING:  cpu time    0.00: real time    0.00
    --------------------------------------------
      LOOP:  cpu time    0.12: real time    0.17

 eigenvalue-minimisations  :   714
 total energy-change (2. order) : 0.9272275E-01  (-0.1305214E-01)
 number of electron       3.9999999 magnetization 
 augmentation part       -0.2636262 magnetization 

 Broyden mixing:
  rms(total) = 0.64534E-02    rms(broyden)= 0.64448E-02
  rms(prec ) = 0.13539E-01
  weight for this iteration     100.00

 eigenvalues of (default mixing * dielectric matrix)
  average eigenvalue GAMMA=   1.8274
  1.2972  2.3575

 Free energy of the ion-electron system (eV)
  ---------------------------------------------------
  alpha Z        PSCENC =         1.61143781
  Ewald energy   TEWEN  =      -135.79194248
  -Hartree energ DENC   =        -0.49972713
  -exchange      EXHF   =         0.00000000
  -V(xc)+E(xc)   XCENC  =        -8.81642842
  PAW double counting   =        33.84535641      -16.41836614
  entropy T*S    EENTRO =        -0.00306990
  eigenvalues    EBANDS =        17.13905020
  atomic energy  EATOM  =       103.42762056
  ---------------------------------------------------
  free energy    TOTEN  =        -5.50606908 eV

  energy without entropy =       -5.50299917  energy(sigma->0) =       -5.50453412


--------------------------------------------------------------------------------------------------------




----------------------------------------- Iteration    2(   4)  ---------------------------------------


    POTLOK:  cpu time    0.00: real time    0.00
    SETDIJ:  cpu time    0.00: real time    0.00
     EDDAV:  cpu time    0.13: real time    0.13
       DOS:  cpu time    0.00: real time    0.00
    CHARGE:  cpu time    0.00: real time    0.00
    MIXING:  cpu time    0.00: real time    0.00
    --------------------------------------------
      LOOP:  cpu time    0.14: real time    0.26

 eigenvalue-minimisations  :   900
 total energy-change (2. order) : 0.2708587E-03  (-0.3368622E-04)
 number of electron       3.9999999 magnetization 
 augmentation part       -0.2635995 magnetization 

 Broyden mixing:
  rms(total) = 0.28919E-02    rms(broyden)= 0.28908E-02
  rms(prec ) = 0.63900E-02
  weight for this iteration     100.00

 eigenvalues of (default mixing * dielectric matrix)
  average eigenvalue GAMMA=   1.9740
  1.0533  2.2570  2.6115

 Free energy of the ion-electron system (eV)
  ---------------------------------------------------
  alpha Z        PSCENC =         1.61143781
  Ewald energy   TEWEN  =      -135.79194248
  -Hartree energ DENC   =        -0.50622252
  -exchange      EXHF   =         0.00000000
  -V(xc)+E(xc)   XCENC  =        -8.81264859
  PAW double counting   =        34.21942168      -16.80665325
  entropy T*S    EENTRO =        -0.00307096
  eigenvalues    EBANDS =        17.15625953
  atomic energy  EATOM  =       103.42762056
  ---------------------------------------------------
  free energy    TOTEN  =        -5.50579822 eV

  energy without entropy =       -5.50272725  energy(sigma->0) =       -5.50426274


--------------------------------------------------------------------------------------------------------




----------------------------------------- Iteration    2(   5)  ---------------------------------------


    POTLOK:  cpu time    0.00: real time    0.00
    SETDIJ:  cpu time    0.00: real time    0.00
     EDDAV:  cpu time    0.07: real time    0.07
       DOS:  cpu time    0.00: real time    0.00
    --------------------------------------------
      LOOP:  cpu time    0.08: real time    0.08

 eigenvalue-minimisations  :   408
 total energy-change (2. order) : 0.7278306E-04  (-0.1127763E-05)
 number of electron       3.9999999 magnetization 
 augmentation part       -0.2635995 magnetization 

 Free energy of the ion-electron system (eV)
  ---------------------------------------------------
  alpha Z        PSCENC =         1.61143781
  Ewald energy   TEWEN  =      -135.79194248
  -Hartree energ DENC   =        -0.50802682
  -exchange      EXHF   =         0.00000000
  -V(xc)+E(xc)   XCENC  =        -8.80833313
  PAW double counting   =        34.51329457      -17.11230261
  entropy T*S    EENTRO =        -0.00307174
  eigenvalues    EBANDS =        17.16559839
  atomic energy  EATOM  =       103.42762056
  ---------------------------------------------------
  free energy    TOTEN  =        -5.50572543 eV

  energy without entropy =       -5.50265369  energy(sigma->0) =       -5.50418956


--------------------------------------------------------------------------------------------------------




 average (electrostatic) potential at core
  the test charge radii are     0.9892
  (the norm of the test charge is              1.0000)
       1 -81.6535
 
 
 
 E-fermi :   9.7264     XC(G=0): -11.1988     alpha+bet :-16.4512


 k-point     1 :       0.0000    0.0000    0.0000
  band No.  band energies     occupation 
      1      -4.3339      2.00000
      2      20.6767      0.00000
      3      20.6767      0.00000
      4      20.6767      0.00000
      5      21.8088      0.00000
      6      21.8088      0.00000

 k-point     2 :       0.0909    0.0000    0.0000
  band No.  band energies     occupation 
      1      -4.0967      2.00000
      2      17.7525      0.00000
      3      19.8450      0.00000
      4      19.8450      0.00000
      5      22.8748      0.00000
      6      22.9083      0.00000

 k-point     3 :       0.1818    0.0000    0.0000
  band No.  band energies     occupation 
      1      -3.3869      2.00000
      2      13.9603      0.00000
      3      18.9677      0.00000
      4      18.9677      0.00000
      5      22.9536      0.00000
      6      23.8732      0.00000

 k-point     4 :       0.2727    0.0000    0.0000
  band No.  band energies     occupation 
      1      -2.2101      2.00000
      2      10.3248      0.00000
      3      18.4265      0.00000
      4      18.4265      0.00000
      5      22.8251      0.00000
      6      22.8831      0.00000

[...]
  band No.  band energies     occupation 
      1       0.6259      2.00000
      2       6.7067      2.00000
      3      16.4549      0.00000
      4      19.1952      0.00000
      5      22.0747      0.00000
      6      22.5799      0.00000

 k-point    14 :      -0.2727    0.0909    0.0000
  band No.  band energies     occupation 
      1      -1.2145      2.00000
      2       9.9908      2.00000
      3      16.4055      0.00000
      4      20.2407      0.00000
      5      22.8842      0.00000
      6      23.5124      0.00000

 k-point    15 :      -0.1818    0.0909    0.0000
  band No.  band energies     occupation 
      1      -2.5880      2.00000
      2      13.6219      0.00000
      3      16.7786      0.00000
      4      21.2425      0.00000
      5      23.7054      0.00000
      6      24.9791      0.00000

 k-point    16 :      -0.0909    0.0909    0.0000
  band No.  band energies     occupation 
      1      -3.4823      2.00000
      2      17.2923      0.00000
      3      17.7408      0.00000
      4      21.9810      0.00000
      5      23.2597      0.00000
      6      24.5682      0.00000

 k-point    17 :       0.1818    0.1818    0.0000
  band No.  band energies     occupation 
      1      -2.8312      2.00000
      2      17.2730      0.00000
      3      17.2731      0.00000
      4      18.8491      0.00000
      5      19.2511      0.00000
      6      22.2027      0.00000

 k-point    18 :       0.2727    0.1818    0.0000
  band No.  band energies     occupation 
      1      -1.9397      2.00000
      2      14.1513      0.00000
      3      16.4970      0.00000
      4      17.7861      0.00000
      5      19.1847      0.00000
      6      21.7533      0.00000

 k-point    19 :       0.3636    0.1818    0.0000
  band No.  band energies     occupation 
      1      -0.5704      2.00000
      2      10.5791      0.07007
      3      16.1379      0.00000
      4      16.2006      0.00000
      5      18.8511      0.00000
      6      23.9373      0.00000

 k-point    20 :       0.4545    0.1818    0.0000
  band No.  band energies     occupation 
      1       1.2641      2.00000
      2       7.3192      2.00000
      3      14.7711      0.00000
      4      16.2002      0.00000
      5      18.8879      0.00000
      6      26.5321      0.00000

 k-point    21 :      -0.4545    0.1818    0.0000
  band No.  band energies     occupation 
      1       3.4928      2.00000
      2       4.5116      2.00000
      3      13.7009      0.00000
      4      16.6755      0.00000
      5      19.4050      0.00000
      6      25.6420      0.00000

 k-point    22 :      -0.3636    0.1818    0.0000
  band No.  band energies     occupation 
      1       1.9746      2.00000
      2       6.3138      2.00000
      3      13.0524      0.00000
      4      17.5542      0.00000
      5      20.3815      0.00000
      6      25.0837      0.00000

 k-point    23 :      -0.2727    0.1818    0.0000
  band No.  band energies     occupation 
      1      -0.0099      2.00000
      2       9.4260      2.00000
      3      12.8601      0.00000
      4      18.7983      0.00000
      5      21.7777      0.00000
      6      24.9623      0.00000

 k-point    24 :      -0.1818    0.1818    0.0000
  band No.  band energies     occupation 
      1      -1.5363      2.00000
      2      12.5669      0.00000
      3      13.4442      0.00000
      4      20.2938      0.00000
      5      23.4984      0.00000
      6      25.4499      0.00000

 k-point    25 :       0.2727    0.2727    0.0000
  band No.  band energies     occupation 
      1      -1.2130      2.00000
      2      15.5805      0.00000
      3      15.5805      0.00000
      4      15.6036      0.00000
      5      16.9874      0.00000
      6      19.5105      0.00000

 k-point    26 :       0.3636    0.2727    0.0000
  band No.  band energies     occupation 
      1      -0.0083      2.00000
      2      12.6328      0.00000
      3      13.6627      0.00000
      4      15.0826      0.00000
      5      17.4142      0.00000
      6      20.2265      0.00000

 k-point    27 :       0.4545    0.2727    0.0000
  band No.  band energies     occupation 
      1       1.6629      2.00000
      2       9.3517      2.00000
      3      11.9600      0.00000
      4      15.0080      0.00000
      5      17.5446      0.00000
      6      22.9287      0.00000

 k-point    28 :      -0.4545    0.2727    0.0000
  band No.  band energies     occupation 
      1       3.7748      2.00000
      2       6.3938      2.00000
      3      10.6909      0.00069
      4      15.3551      0.00000
      5      17.9707      0.00000
      6      26.1146      0.00000

 k-point    29 :      -0.3636    0.2727    0.0000
  band No.  band energies     occupation 
      1       3.7791      2.00000
      2       6.3650      2.00000
      3       9.8899      2.00000
      4      16.1193      0.00000
      5      18.8341      0.00000
      6      28.1203      0.00000

 k-point    30 :      -0.2727    0.2727    0.0000
  band No.  band energies     occupation 
      1       1.6624      2.00000
      2       8.9174      2.00000
      3       9.9362      2.00000
      4      17.2860      0.00000
      5      20.1274      0.00000
      6      27.5957      0.00000

 k-point    31 :       0.3636    0.3636    0.0000
  band No.  band energies     occupation 
      1       1.0290      2.00000
      2      11.3192      0.00000
      3      14.4449      0.00000
      4      14.4449      0.00000
      5      15.7103      0.00000
      6      18.2148      0.00000

 k-point    32 :       0.4545    0.3636    0.0000
  band No.  band energies     occupation 
      1       2.5304      2.00000
      2       9.4360      2.00000
      3      11.8093      0.00000
      4      14.2307      0.00000
      5      16.4609      0.00000
      6      19.3600      0.00000

 k-point    33 :      -0.4545    0.3636    0.0000
  band No.  band energies     occupation 
      1       4.4657      2.00000
      2       7.9509      2.00000
      3       8.8533      2.00000
      4      14.4407      0.00000
      5      16.9142      0.00000
      6      22.3996      0.00000

 k-point    34 :      -0.3636    0.3636    0.0000
  band No.  band energies     occupation 
      1       5.9901      2.00000
      2       6.4671      2.00000
      3       7.5469      2.00000
      4      15.0729      0.00000
      5      17.6671      0.00000
      6      25.9208      0.00000

 k-point    35 :       0.4545    0.4545    0.0000
  band No.  band energies     occupation 
      1       3.8452      2.00000
      2       7.4075      2.00000
      3      13.8760      0.00000
      4      13.8760      0.00000
      5      15.0682      0.00000
      6      17.6053      0.00000

 k-point    36 :      -0.4545    0.4545    0.0000
  band No.  band energies     occupation 
      1       5.2402      2.00000
      2       6.1787      2.00000
      3      11.4992      0.00000
      4      13.9460      0.00000
      5      16.1419      0.00000
      6      19.0682      0.00000

 k-point    37 :       0.2727    0.1818    0.0909
  band No.  band energies     occupation 
      1      -2.5067      2.00000
      2      14.9559      0.00000
      3      15.6010      0.00000
      4      20.2014      0.00000
      5      21.6950      0.00000
      6      23.3614      0.00000

 k-point    38 :       0.3636    0.1818    0.0909
  band No.  band energies     occupation 
      1      -1.2944      2.00000
      2      11.5386      0.00000
      3      14.8273      0.00000
      4      18.6442      0.00000
      5      21.7841      0.00000
      6      24.4910      0.00000

 k-point    39 :       0.4545    0.1818    0.0909
  band No.  band energies     occupation 
      1       0.3890      2.00000
      2       8.1594      2.00000
      3      14.7252      0.00000
      4      17.1446      0.00000
      5      21.6461      0.00000
      6      24.0827      0.00000

 k-point    40 :      -0.4545    0.1818    0.0909
  band No.  band energies     occupation 
      1       2.5175      2.00000
      2       5.1664      2.00000
      3      15.0115      0.00000
      4      16.0263      0.00000
      5      21.8212      0.00000
      6      23.1230      0.00000

 k-point    41 :       0.3636    0.2727    0.0909
  band No.  band energies     occupation 
      1      -0.8913      2.00000
      2      13.1632      0.00000
      3      13.8681      0.00000
      4      16.0968      0.00000
      5      19.9770      0.00000
      6      21.4072      0.00000

 k-point    42 :       0.4545    0.2727    0.0909
  band No.  band energies     occupation 
      1       0.6299      2.00000
      2      10.0228      2.00000
      3      13.3013      0.00000
      4      14.3747      0.00000
      5      20.3489      0.00000
      6      23.4846      0.00000

 k-point    43 :      -0.4545    0.2727    0.0909
  band No.  band energies     occupation 
      1       2.6071      2.00000
      2       6.9272      2.00000
      3      12.7503      0.00000
      4      13.7322      0.00000
      5      20.6171      0.00000
      6      25.6100      0.00000

 k-point    44 :      -0.3636    0.2727    0.0909
  band No.  band energies     occupation 
      1       4.1259      2.00000
      2       5.1203      2.00000
      3      11.8598      0.00000
      4      14.3152      0.00000
      5      21.2573      0.00000
      6      25.0806      0.00000

 k-point    45 :      -0.2727    0.2727    0.0909
  band No.  band energies     occupation 
      1       1.8993      2.00000
      2       7.8963      2.00000
      3      11.3772      0.00000
      4      15.3902      0.00000
      5      22.2601      0.00000
      6      24.6452      0.00000

 k-point    46 :      -0.1818    0.2727    0.0909
  band No.  band energies     occupation 
      1       0.0706      2.00000
      2      10.7483      0.00003
      3      11.7018      0.00000
      4      16.8795      0.00000
      5      23.4203      0.00000
      6      24.0687      0.00000

 k-point    47 :       0.4545    0.3636    0.0909
  band No.  band energies     occupation 
      1       1.3465      2.00000
      2      11.5453      0.00000
      3      11.9567      0.00000
      4      12.9024      0.00000
      5      18.7841      0.00000
      6      20.2850      0.00000

 k-point    48 :      -0.4545    0.3636    0.0909
  band No.  band energies     occupation 
      1       3.1583      2.00000
      2       9.0668      2.00000
      3      10.1057      2.00000
      4      12.5740      0.00000
      5      19.4807      0.00000
      6      22.7479      0.00000

 k-point    49 :      -0.3636    0.3636    0.0909
  band No.  band energies     occupation 
      1       5.3605      2.00000
      2       6.3250      2.00000
      3       8.9812      2.00000
      4      13.0570      0.00000
      5      20.0627      0.00000
      6      26.0069      0.00000

 k-point    50 :      -0.2727    0.3636    0.0909
  band No.  band energies     occupation 
      1       3.8628      2.00000
      2       7.6933      2.00000
      3       8.7205      2.00000
      4      14.0078      0.00000
      5      21.0120      0.00000
      6      27.7073      0.00000

 k-point    51 :      -0.4545    0.4545    0.0909
  band No.  band energies     occupation 
      1       4.1566      2.00000
      2       7.7074      2.00000
      3      11.3516      0.00000
      4      12.2354      0.00000
      5      18.1819      0.00000
      6      19.7263      0.00000

 k-point    52 :      -0.3636    0.4545    0.0909
  band No.  band energies     occupation 
      1       5.8538      2.00000
      2       6.7739      2.00000
      3       8.8582      2.00000
      4      12.2600      0.00000
      5      19.1865      0.00000
      6      22.4888      0.00000

 k-point    53 :      -0.4545    0.3636    0.1818
  band No.  band energies     occupation 
      1       2.2954      2.00000
      2       9.5293      2.00000
      3      10.4702      0.78624
      4      12.6432      0.00000
      5      22.9516      0.00000
      6      23.5675      0.00000

 k-point    54 :      -0.3636    0.3636    0.1818
  band No.  band energies     occupation 
      1       4.4011      2.00000
      2       6.9742      2.00000
      3      10.3888      1.62096
      4      11.4311      0.00000
      5      23.4397      0.00000
      6      24.7287      0.00000

 k-point    55 :      -0.3636    0.4545    0.1818
  band No.  band energies     occupation 
      1       5.0860      2.00000
      2       8.5452      2.00000
      3       8.9192      2.00000
      4      10.0792      2.00000
      5      22.3755      0.00000
      6      23.2651      0.00000

 k-point    56 :      -0.2727    0.4545    0.1818
  band No.  band energies     occupation 
      1       6.5904      2.00000
      2       7.0801      2.00000
      3       8.0905      2.00000
      4      10.2800      1.98437
      5      23.3691      0.00000
      6      26.0205      0.00000


--------------------------------------------------------------------------------------------------------


 soft charge-density along one line, spin component           1
         0         1         2         3         4         5         6         7         8         9
 total charge-density along one line
 
 pseudopotential strength for first ion, spin component:           1
 18.917  -0.004  -0.000  -0.000   0.000   0.000   0.000  -0.000
 -0.004   0.006   0.000   0.000  -0.000  -0.000  -0.000   0.000
 -0.000   0.000   4.267  -0.000  -0.000  -0.007   0.000   0.000
 -0.000   0.000  -0.000   4.267  -0.000   0.000  -0.007   0.000
  0.000  -0.000  -0.000  -0.000   4.267   0.000   0.000  -0.007
  0.000  -0.000  -0.007   0.000   0.000   0.005  -0.000  -0.000
  0.000  -0.000   0.000  -0.007   0.000  -0.000   0.005  -0.000
 -0.000   0.000   0.000   0.000  -0.007  -0.000  -0.000   0.005
 total augmentation occupancy for first ion, spin component:           1
  1.748  -0.270   0.000   0.000   0.000   0.000   0.000   0.000
 -0.270   1.206   0.000   0.000   0.000   0.000   0.000   0.000
  0.000   0.000   0.781   0.000   0.000  -0.479  -0.000   0.000
  0.000   0.000   0.000   0.781   0.000  -0.000  -0.479   0.000
  0.000   0.000   0.000   0.000   0.781   0.000   0.000  -0.479
  0.000   0.000  -0.479  -0.000   0.000   0.393   0.000   0.000
  0.000   0.000  -0.000  -0.479   0.000   0.000   0.393   0.000
  0.000   0.000   0.000  -0.000  -0.479   0.000   0.000   0.393


------------------------ aborting loop because EDIFF is reached ----------------------------------------


    CHARGE:  cpu time    0.00: real time    0.00
    FORLOC:  cpu time    0.00: real time    0.00
    FORNL :  cpu time    0.01: real time    0.01
    STRESS:  cpu time    0.05: real time    0.05
    FORCOR:  cpu time    0.00: real time    0.00
    FORHAR:  cpu time    0.00: real time    0.00
    MIXING:  cpu time    0.00: real time    0.00
    OFIELD:  cpu time    0.00: real time    0.00

  FORCE on cell =-STRESS in cart. coord.  units (eV):
  Direction    XX          YY          ZZ          XY          YZ          ZX
  --------------------------------------------------------------------------------------
  Alpha Z     1.69073     1.69073     1.69073
  Ewald     -45.99458   -45.99458   -45.99458    -0.00000     0.00000     0.00000
  Hartree     0.14373     0.14373     0.14373     0.00000     0.00000     0.00000
  E(xc)     -13.20932   -13.20932   -13.20932    -0.00000    -0.00000    -0.00000
  Local      -5.24277    -5.24276    -5.24277     0.00003     0.00003     0.00003
  n-local    40.81667    38.41508    40.76299    -0.87135     0.81073     1.22597
  augment    -6.76875    -6.76875    -6.76875    -0.00002    -0.00002    -0.00002
  Kinetic    21.48354    39.88901    26.62222    10.73901    -8.76857   -15.66178
  Fock        0.00000     0.00000     0.00000     0.00000     0.00000     0.00000
  -------------------------------------------------------------------------------------
  Total      -0.05112    -0.05112    -0.05112     0.00000    -0.00000    -0.00000
  in kB      -5.84204    -5.84204    -5.84204     0.00000    -0.00000    -0.00000
  external pressure =       -5.84 kB  Pullay stress =        0.00 kB


 VOLUME and BASIS-vectors are now :
 -----------------------------------------------------------------------------
  energy-cutoff  :      240.00
  volume of cell :       14.02
      direct lattice vectors                 reciprocal lattice vectors
     1.913878770  1.913878770 -0.000000000     0.261249567  0.261249567 -0.261249567
     0.000000000  1.913878770  1.913878770    -0.261249567  0.261249567  0.261249567
     1.913878770  0.000000000  1.913878770     0.261249567 -0.261249567  0.261249567

  length of vectors
     2.706633314  2.706633314  2.706633314     0.452497523  0.452497523  0.452497523


 FORCES acting on ions
    electron-ion (+dipol)            ewald-force                    non-local-force                 convergence-correction
 -----------------------------------------------------------------------------------------------
   -.316E-15 -.499E-15 0.947E-15   0.878E-16 0.331E-15 -.218E-16   0.000E+00 -.347E-23 0.165E-23   0.422E-17 0.997E-18 -.109E-16
 -----------------------------------------------------------------------------------------------
   -.316E-15 -.499E-15 0.947E-15   0.878E-16 0.331E-15 -.218E-16   0.000E+00 -.347E-23 0.165E-23   0.422E-17 0.997E-18 -.109E-16
 
 
 POSITION                                       TOTAL-FORCE (eV/Angst)
 -----------------------------------------------------------------------------------
      0.00000      0.00000      0.00000        -0.000000      0.000000      0.000000
 -----------------------------------------------------------------------------------
    total drift:                               -0.000000     -0.000000      0.000000


--------------------------------------------------------------------------------------------------------



  FREE ENERGIE OF THE ION-ELECTRON SYSTEM (eV)
  ---------------------------------------------------
  free  energy   TOTEN  =        -5.51732192 eV

  energy  without entropy=       -5.51470416  energy(sigma->0) =       -5.51601304
 
 d Force = 0.0000000E+00[ 0.000E+00, 0.000E+00]  d Energy = 0.1159649E-01-0.116E-01
 d Force = 0.0000000E+00[ 0.000E+00, 0.000E+00]  d Ewald  = 0.2191798E+01-0.219E+01


--------------------------------------------------------------------------------------------------------


    POTLOK:  cpu time    0.00: real time    0.00


--------------------------------------------------------------------------------------------------------




--------------------------------------------------------------------------------------------------------


  
 reached required accuracy - stopping structural energy minimisation
 writing wavefunctions
     LOOP+:  cpu time    0.52: real time    0.82
    4ORBIT:  cpu time    0.00: real time    0.00

 total amount of memory used by VASP on root node    32917. kBytes
========================================================================

   base      :      30000. kBytes
   nonl-proj :        640. kBytes
   fftplans  :        504. kBytes
   grid      :        771. kBytes
   one-center:          3. kBytes
   wavefun   :        999. kBytes
 
  
  
 General timing and accounting informations for this job:
 ========================================================
  
                  Total CPU time used (sec):        2.469
                            User time (sec):        2.435
                          System time (sec):        0.034
                         Elapsed time (sec):        3.806
  
                   Maximum memory used (kb):       32776.
                   Average memory used (kb):           0.
  
                          Minor page faults:         4261
                          Major page faults:            0
                 Voluntary context switches:          452
