<?xml version="1.0" encoding="ISO-8859-1"?>
<modeling>
 <generator>
  <i name="program" type="string">vasp </i>
  <i name="version" type="string">5.3.5  </i>
  <i name="subversion" type="string">31Mar14 (build Feb  5 2015 19:39:53) complex                          parallel </i>
  <i name="platform" type="string">HPCUofA </i>
  <i name="date" type="string">2017 11 12 </i>
  <i name="time" type="string">22:49:31 </i>
 </generator>
 <incar>
  <i type="string" name="SYSTEM"> diamond Si</i>
  <i type="int" name="ISTART">     0</i>
  <i type="string" name="PREC">normal</i>
  <i type="int" name="ICHARG">     2</i>
  <i type="int" name="IBRION">     2</i>
  <i type="int" name="NSW">     5</i>
  <i type="int" name="ISIF">     3</i>
  <i name="ENCUT">    240.00000000</i>
  <i type="int" name="ISMEAR">     0</i>
  <i name="SIGMA">      0.10000000</i>
 </incar>
 <kpoints>
  <generation param="Monkhorst-Pack">
   <v type="int" name="divisions">      11       11       11 </v>
   <v name="usershift">      0.00000000       0.00000000       0.00000000 </v>
   <v name="genvec1">      0.09090909       0.00000000       0.00000000 </v>
   <v name="genvec2">      0.00000000       0.09090909       0.00000000 </v>
   <v name="genvec3">      0.00000000       0.00000000       0.09090909 </v>
   <v name="shift">      0.00000000       0.00000000       0.00000000 </v>
  </generation>
  <varray name="kpointlist" >
   <v>       0.00000000       0.00000000       0.00000000 </v>
   <v>       0.09090909       0.00000000       0.00000000 </v>
   <v>       0.18181818       0.00000000       0.00000000 </v>
   <v>       0.27272727       0.00000000       0.00000000 </v>
   <v>       0.36363636       0.00000000       0.00000000 </v>
   <v>       0.45454545       0.00000000       0.00000000 </v>
   <v>       0.09090909       0.09090909       0.00000000 </v>
   <v>       0.18181818       0.09090909       0.00000000 </v>
   <v>       0.27272727       0.09090909       0.00000000 </v>
   <v>       0.36363636       0.09090909       0.00000000 </v>
   <v>       0.45454545       0.09090909       0.00000000 </v>
   <v>      -0.45454545       0.09090909       0.00000000 </v>
   <v>      -0.36363636       0.09090909       0.00000000 </v>
   <v>      -0.27272727       0.09090909       0.00000000 </v>
   <v>      -0.18181818       0.09090909       0.00000000 </v>
   <v>      -0.09090909       0.09090909       0.00000000 </v>
   <v>       0.18181818       0.18181818       0.00000000 </v>
   <v>       0.27272727       0.18181818       0.00000000 </v>
   <v>       0.36363636       0.18181818       0.00000000 </v>
   <v>       0.45454545       0.18181818       0.00000000 </v>
   <v>      -0.45454545       0.18181818       0.00000000 </v>
   <v>      -0.36363636       0.18181818       0.00000000 </v>
   <v>      -0.27272727       0.18181818       0.00000000 </v>
   <v>      -0.18181818       0.18181818       0.00000000 </v>
   <v>       0.27272727       0.27272727       0.00000000 </v>
   <v>       0.36363636       0.27272727       0.00000000 </v>
   <v>       0.45454545       0.27272727       0.00000000 </v>
   <v>      -0.45454545       0.27272727       0.00000000 </v>
   <v>      -0.36363636       0.27272727       0.00000000 </v>
   <v>      -0.27272727       0.27272727       0.00000000 </v>
   <v>       0.36363636       0.36363636       0.00000000 </v>
   <v>       0.45454545       0.36363636       0.00000000 </v>
   <v>      -0.45454545       0.36363636       0.00000000 </v>
   <v>      -0.36363636       0.36363636       0.00000000 </v>
   <v>       0.45454545       0.45454545       0.00000000 </v>
   <v>      -0.45454545       0.45454545       0.00000000 </v>
   <v>       0.27272727       0.18181818       0.09090909 </v>
   <v>       0.36363636       0.18181818       0.09090909 </v>
   <v>       0.45454545       0.18181818       0.09090909 </v>
   <v>      -0.45454545       0.18181818       0.09090909 </v>
   <v>       0.36363636       0.27272727       0.09090909 </v>
   <v>       0.45454545       0.27272727       0.09090909 </v>
   <v>      -0.45454545       0.27272727       0.09090909 </v>
   <v>      -0.36363636       0.27272727       0.09090909 </v>
   <v>      -0.27272727       0.27272727       0.09090909 </v>
   <v>      -0.18181818       0.27272727       0.09090909 </v>
   <v>       0.45454545       0.36363636       0.09090909 </v>
   <v>      -0.45454545       0.36363636       0.09090909 </v>
   <v>      -0.36363636       0.36363636       0.09090909 </v>
   <v>      -0.27272727       0.36363636       0.09090909 </v>
   <v>      -0.45454545       0.45454545       0.09090909 </v>
   <v>      -0.36363636       0.45454545       0.09090909 </v>
   <v>      -0.45454545       0.36363636       0.18181818 </v>
   <v>      -0.36363636       0.36363636       0.18181818 </v>
   <v>      -0.36363636       0.45454545       0.18181818 </v>
   <v>      -0.27272727       0.45454545       0.18181818 </v>
  </varray>
  <varray name="weights" >
   <v>       0.00075131 </v>
   <v>       0.00601052 </v>
   <v>       0.00601052 </v>
   <v>       0.00601052 </v>
   <v>       0.00601052 </v>
   <v>       0.00601052 </v>
   <v>       0.00450789 </v>
   <v>       0.01803156 </v>
   <v>       0.01803156 </v>
   <v>       0.01803156 </v>
   <v>       0.01803156 </v>
   <v>       0.01803156 </v>
   <v>       0.01803156 </v>
   <v>       0.01803156 </v>
   <v>       0.01803156 </v>
   <v>       0.00901578 </v>
   <v>       0.00450789 </v>
   <v>       0.01803156 </v>
   <v>       0.01803156 </v>
   <v>       0.01803156 </v>
   <v>       0.01803156 </v>
   <v>       0.01803156 </v>
   <v>       0.01803156 </v>
   <v>       0.00901578 </v>
   <v>       0.00450789 </v>
   <v>       0.01803156 </v>
   <v>       0.01803156 </v>
   <v>       0.01803156 </v>
   <v>       0.01803156 </v>
   <v>       0.00901578 </v>
   <v>       0.00450789 </v>
   <v>       0.01803156 </v>
   <v>       0.01803156 </v>
   <v>       0.00901578 </v>
   <v>       0.00450789 </v>
   <v>       0.00901578 </v>
   <v>       0.01803156 </v>
   <v>       0.03606311 </v>
   <v>       0.03606311 </v>
   <v>       0.03606311 </v>
   <v>       0.01803156 </v>
   <v>       0.03606311 </v>
   <v>       0.03606311 </v>
   <v>       0.03606311 </v>
   <v>       0.03606311 </v>
   <v>       0.01803156 </v>
   <v>       0.01803156 </v>
   <v>       0.03606311 </v>
   <v>       0.03606311 </v>
   <v>       0.01803156 </v>
   <v>       0.01803156 </v>
   <v>       0.01803156 </v>
   <v>       0.01803156 </v>
   <v>       0.03606311 </v>
   <v>       0.01803156 </v>
   <v>       0.01803156 </v>
  </varray>
 </kpoints>
 <parameters>
  <separator name="general" >
   <i type="string" name="SYSTEM">diamond Si</i>
   <i type="logical" name="LCOMPAT"> F  </i>
  </separator>
  <separator name="electronic" >
   <i type="string" name="PREC">normal</i>
   <i name="ENMAX">    240.00000000</i>
   <i name="ENAUG">    322.06900000</i>
   <i name="EDIFF">      0.00010000</i>
   <i type="int" name="IALGO">    38</i>
   <i type="int" name="IWAVPR">    11</i>
   <i type="int" name="NBANDS">     6</i>
   <i name="NELECT">      4.00000000</i>
   <i type="int" name="TURBO">     0</i>
   <i type="int" name="IRESTART">     0</i>
   <i type="int" name="NREBOOT">     0</i>
   <i type="int" name="NMIN">     0</i>
   <i name="EREF">      0.00000000</i>
   <separator name="electronic smearing" >
    <i type="int" name="ISMEAR">     0</i>
    <i name="SIGMA">      0.10000000</i>
    <i name="KSPACING">      0.50000000</i>
    <i type="logical" name="KGAMMA"> T  </i>
   </separator>
   <separator name="electronic projectors" >
    <i type="logical" name="LREAL"> F  </i>
    <v name="ROPT">      0.00000000</v>
    <i type="int" name="LMAXPAW">  -100</i>
    <i type="int" name="LMAXMIX">     2</i>
    <i type="logical" name="NLSPLINE"> F  </i>
   </separator>
   <separator name="electronic startup" >
    <i type="int" name="ISTART">     0</i>
    <i type="int" name="ICHARG">     2</i>
    <i type="int" name="INIWAV">     1</i>
   </separator>
   <separator name="electronic spin" >
    <i type="int" name="ISPIN">     1</i>
    <i type="logical" name="LNONCOLLINEAR"> F  </i>
    <v name="MAGMOM">      1.00000000</v>
    <i name="NUPDOWN">     -1.00000000</i>
    <i type="logical" name="LSORBIT"> F  </i>
    <v name="SAXIS">      0.00000000      0.00000000      1.00000000</v>
    <i type="logical" name="LSPIRAL"> F  </i>
    <v name="QSPIRAL">      0.00000000      0.00000000      0.00000000</v>
    <i type="logical" name="LZEROZ"> F  </i>
   </separator>
   <separator name="electronic exchange-correlation" >
    <i type="logical" name="LASPH"> F  </i>
    <i type="logical" name="LMETAGGA"> F  </i>
   </separator>
   <separator name="electronic convergence" >
    <i type="int" name="NELM">    60</i>
    <i type="int" name="NELMDL">    -5</i>
    <i type="int" name="NELMIN">     2</i>
    <i name="ENINI">    240.00000000</i>
    <separator name="electronic convergence detail" >
     <i type="logical" name="LDIAG"> T  </i>
     <i type="logical" name="LSUBROT"> F  </i>
     <i name="WEIMIN">      0.00100000</i>
     <i name="EBREAK">      0.00000417</i>
     <i name="DEPER">      0.30000000</i>
     <i type="int" name="NRMM">     4</i>
     <i name="TIME">      0.40000000</i>
    </separator>
   </separator>
   <separator name="electronic mixer" >
    <i name="AMIX">      0.40000000</i>
    <i name="BMIX">      1.00000000</i>
    <i name="AMIN">      0.10000000</i>
    <i name="AMIX_MAG">      1.60000000</i>
    <i name="BMIX_MAG">      1.00000000</i>
    <separator name="electronic mixer details" >
     <i type="int" name="IMIX">     4</i>
     <i type="int" name="MAXMIX">   -45</i>
     <i name="WC">    100.00000000</i>
     <i type="int" name="INIMIX">     1</i>
     <i type="int" name="MIXPRE">     1</i>
     <i type="int" name="MREMOVE">     5</i>
    </separator>
   </separator>
   <separator name="electronic dipolcorrection" >
    <i type="logical" name="LDIPOL"> F  </i>
    <i type="logical" name="LMONO"> F  </i>
    <i type="int" name="IDIPOL">     0</i>
    <i name="EPSILON">      1.00000000</i>
    <v name="DIPOL">   -100.00000000   -100.00000000   -100.00000000</v>
    <i name="EFIELD">      0.00000000</i>
   </separator>
  </separator>
  <separator name="grids" >
   <i type="int" name="NGX">    12</i>
   <i type="int" name="NGY">    12</i>
   <i type="int" name="NGZ">    12</i>
   <i type="int" name="NGXF">    24</i>
   <i type="int" name="NGYF">    24</i>
   <i type="int" name="NGZF">    24</i>
   <i type="logical" name="ADDGRID"> F  </i>
  </separator>
  <separator name="ionic" >
   <i type="int" name="NSW">     5</i>
   <i type="int" name="IBRION">     2</i>
   <i type="int" name="ISIF">     3</i>
   <i name="PSTRESS">      0.00000000</i>
   <i name="EDIFFG">      0.00100000</i>
   <i type="int" name="NFREE">     1</i>
   <i name="POTIM">      0.50000000</i>
   <i name="SMASS">     -3.00000000</i>
   <i name="SCALEE">      1.00000000</i>
  </separator>
  <separator name="ionic md" >
   <i name="TEBEG">      0.00010000</i>
   <i name="TEEND">      0.00010000</i>
   <i type="int" name="NBLOCK">     1</i>
   <i type="int" name="KBLOCK">     5</i>
   <i type="int" name="NPACO">   256</i>
   <i name="APACO">     16.00000000</i>
  </separator>
  <separator name="symmetry" >
   <i type="int" name="ISYM">     2</i>
   <i name="SYMPREC">      0.00001000</i>
  </separator>
  <separator name="dos" >
   <i type="logical" name="LORBIT"> F  </i>
   <v name="RWIGS">     -1.00000000</v>
   <i type="int" name="NEDOS">   301</i>
   <i name="EMIN">     10.00000000</i>
   <i name="EMAX">    -10.00000000</i>
   <i name="EFERMI">      0.00000000</i>
  </separator>
  <separator name="writing" >
   <i type="int" name="NWRITE">     2</i>
   <i type="logical" name="LWAVE"> T  </i>
   <i type="logical" name="LCHARG"> T  </i>
   <i type="logical" name="LPARD"> F  </i>
   <i type="logical" name="LVTOT"> F  </i>
   <i type="logical" name="LVHAR"> F  </i>
   <i type="logical" name="LELF"> F  </i>
   <i type="logical" name="LOPTICS"> F  </i>
   <v name="STM">      0.00000000      0.00000000      0.00000000      0.00000000      0.00000000      0.00000000      0.00000000</v>
  </separator>
  <separator name="performance" >
   <i type="int" name="NPAR">     1</i>
   <i type="int" name="NSIM">     4</i>
   <i type="int" name="NBLK">    -1</i>
   <i type="logical" name="LPLANE"> T  </i>
   <i type="logical" name="LSCALAPACK"> T  </i>
   <i type="logical" name="LSCAAWARE"> F  </i>
   <i type="logical" name="LSCALU"> F  </i>
   <i type="logical" name="LASYNC"> F  </i>
   <i type="logical" name="LORBITALREAL"> F  </i>
  </separator>
  <separator name="miscellaneous" >
   <i type="int" name="IDIOT">     3</i>
   <i type="logical" name="LMUSIC"> F  </i>
   <v name="POMASS">     28.08500000</v>
   <v name="DARWINR">      0.00000000</v>
   <v name="DARWINV">      1.00000000</v>
   <i type="logical" name="LCORR"> T  </i>
  </separator>
  <i type="logical" name="GGA_COMPAT"> T  </i>
  <i type="logical" name="LBERRY"> F  </i>
  <i type="int" name="ICORELEVEL">     0</i>
  <i type="logical" name="LDAU"> F  </i>
  <i type="int" name="I_CONSTRAINED_M">     0</i>
  <separator name="electronic exchange-correlation" >
   <i type="string" name="GGA">--</i>
   <i type="int" name="VOSKOWN">     0</i>
   <i type="logical" name="LHFCALC"> F  </i>
   <i type="string" name="PRECFOCK"></i>
   <i type="logical" name="LSYMGRAD"> F  </i>
   <i type="logical" name="LHFONE"> F  </i>
   <i type="logical" name="LRHFCALC"> F  </i>
   <i type="logical" name="LTHOMAS"> F  </i>
   <i type="logical" name="LMODELHF"> F  </i>
   <i name="ENCUT4O">     -1.00000000</i>
   <i type="int" name="EXXOEP">     0</i>
   <i type="int" name="FOURORBIT">     0</i>
   <i name="AEXX">      0.00000000</i>
   <i name="HFALPHA">      0.00000000</i>
   <i name="MCALPHA">      0.00000000</i>
   <i name="ALDAX">      1.00000000</i>
   <i name="AGGAX">      1.00000000</i>
   <i name="ALDAC">      1.00000000</i>
   <i name="AGGAC">      1.00000000</i>
   <i type="int" name="NKREDX">     1</i>
   <i type="int" name="NKREDY">     1</i>
   <i type="int" name="NKREDZ">     1</i>
   <i type="logical" name="SHIFTRED"> F  </i>
   <i type="logical" name="ODDONLY"> F  </i>
   <i type="logical" name="EVENONLY"> F  </i>
   <i type="int" name="LMAXFOCK">     0</i>
   <i type="int" name="NMAXFOCKAE">     0</i>
   <i type="logical" name="LFOCKAEDFT"> F  </i>
   <i name="HFSCREEN">      0.00000000</i>
   <i name="HFSCREENC">      0.00000000</i>
   <i type="int" name="NBANDSGWLOW">     0</i>
  </separator>
  <separator name="vdW DFT" >
   <i type="logical" name="LUSE_VDW"> F  </i>
   <i name="Zab_VDW">     -0.84910000</i>
   <i name="PARAM1">      0.12340000</i>
   <i name="PARAM2">      1.00000000</i>
   <i name="PARAM3">      0.00000000</i>
  </separator>
  <separator name="model GW" >
   <i type="int" name="MODEL_GW">     0</i>
   <i name="MODEL_EPS0">     11.92605000</i>
   <i name="MODEL_ALPHA">      1.00000000</i>
  </separator>
  <separator name="linear response parameters" >
   <i type="logical" name="LEPSILON"> F  </i>
   <i type="logical" name="LRPA"> F  </i>
   <i type="logical" name="LNABLA"> F  </i>
   <i type="logical" name="LVEL"> F  </i>
   <i type="int" name="KINTER">     0</i>
   <i name="CSHIFT">      0.10000000</i>
   <i name="OMEGAMAX">     -1.00000000</i>
   <i name="DEG_THRESHOLD">      0.00200000</i>
  </separator>
  <separator name="orbital magnetization" >
   <i type="logical" name="NUCIND"> F  </i>
   <v name="MAGPOS">      0.00000000      0.00000000      0.00000000</v>
   <i type="logical" name="LNICSALL"> T  </i>
   <i type="logical" name="ORBITALMAG"> F  </i>
   <i type="logical" name="LMAGBLOCH"> F  </i>
   <i type="logical" name="LCHIMAG"> F  </i>
   <i type="logical" name="LGAUGE"> T  </i>
   <i type="int" name="MAGATOM">     0</i>
   <v name="MAGDIPOL">      0.00000000      0.00000000      0.00000000</v>
   <v name="AVECCONST">      0.00000000      0.00000000      0.00000000</v>
  </separator>
  <separator name="response functions" >
   <i type="logical" name="LADDER"> F  </i>
   <i type="logical" name="LFXC"> F  </i>
   <i type="logical" name="LHARTREE"> T  </i>
   <i type="int" name="IBSE">     0</i>
   <i type="logical" name="LTCTE"> F  </i>
   <i type="logical" name="LTETE"> F  </i>
   <i type="logical" name="LTRIPLET"> F  </i>
   <i type="logical" name="LFXCEPS"> F  </i>
   <i type="logical" name="LFXHEG"> F  </i>
   <i type="logical" name="L2ORDER"> F  </i>
   <i type="logical" name="LUSEW"> F  </i>
   <i name="ENCUTGW">     -2.00000000</i>
   <i name="ENCUTGWSOFT">     -2.00000000</i>
   <i name="ENCUTLF">     -1.00000000</i>
   <i type="int" name="LMAXMP2">    -1</i>
   <i name="SCISSOR">      0.00000000</i>
   <i type="int" name="NOMEGA">     0</i>
   <i type="int" name="NOMEGAR">     0</i>
   <i type="int" name="NBANDSGW">    -1</i>
   <i type="int" name="NBANDSO">    -1</i>
   <i type="int" name="NBANDSV">    -1</i>
   <i type="int" name="NELM">     1</i>
   <i type="int" name="DIM">     3</i>
   <i type="int" name="ANTIRES">     0</i>
   <i name="OMEGAMAX">    -30.00000000</i>
   <i name="OMEGAMIN">    -30.00000000</i>
   <i name="OMEGATL">   -200.00000000</i>
   <i type="int" name="OMEGAGRID">     0</i>
   <i name="CSHIFT">     -0.10000000</i>
   <i type="logical" name="SELFENERGY"> F  </i>
   <i type="logical" name="LSPECTRAL"> F  </i>
   <i type="logical" name="ODDONLYGW"> F  </i>
   <i type="logical" name="EVENONLYGW"> F  </i>
   <i type="int" name="NKREDLFX">     1</i>
   <i type="int" name="NKREDLFY">     1</i>
   <i type="int" name="NKREDLFZ">     1</i>
   <i type="int" name="MAXMEM">  1800</i>
   <i type="int" name="TELESCOPE">     0</i>
   <i type="int" name="TAUPAR">     1</i>
  </separator>
  <separator name="External order field" >
   <i name="OFIELD_KAPPA">      0.00000000</i>
   <v name="OFIELD_K">      0.00000000      0.00000000      0.00000000</v>
   <i name="OFIELD_Q6_NEAR">      0.00000000</i>
   <i name="OFIELD_Q6_FAR">      0.00000000</i>
   <i name="OFIELD_A">      0.00000000</i>
  </separator>
 </parameters>
 <atominfo>
  <atoms>       1 </atoms>
  <types>       1 </types>
  <array name="atoms" >
   <dimension dim="1">ion</dimension>
   <field type="string">element</field>
   <field type="int">atomtype</field>
   <set>
    <rc><c>Si</c><c>   1</c></rc>
   </set>
  </array>
  <array name="atomtypes" >
   <dimension dim="1">type</dimension>
   <field type="int">atomspertype</field>
   <field type="string">element</field>
   <field>mass</field>
   <field>valence</field>
   <field type="string">pseudopotential</field>
   <set>
    <rc><c>   1</c><c>Si</c><c>     28.08500000</c><c>      4.00000000</c><c> PAW Si 02Apr1999                       </c></rc>
   </set>
  </array>
 </atominfo>
 <structure name="initialpos" >
  <crystal>
   <varray name="basis" >
    <v>       2.15000000       2.15000000       0.00000000 </v>
    <v>       0.00000000       2.15000000       2.15000000 </v>
    <v>       2.15000000       0.00000000       2.15000000 </v>
   </varray>
   <i name="volume">     19.87675000 </i>
   <varray name="rec_basis" >
    <v>       0.23255814       0.23255814      -0.23255814 </v>
    <v>      -0.23255814       0.23255814       0.23255814 </v>
    <v>       0.23255814      -0.23255814       0.23255814 </v>
   </varray>
  </crystal>
  <varray name="positions" >
   <v>       0.00000000       0.00000000       0.00000000 </v>
  </varray>
 </structure>
 <calculation>
  <scstep>
   <time name="dav">    0.11    0.11</time>
   <time name="total">    0.12    0.12</time>
   <energy>
    <i name="alphaZ">      1.19262302 </i>
    <i name="ewald">   -122.82983823 </i>
    <i name="hartreedc">     -1.68237371 </i>
    <i name="XCdc">     -9.51911835 </i>
    <i name="pawpsdc">     33.55897582 </i>
    <i name="pawaedc">    -16.14130609 </i>
    <i name="eentropy">     -0.00218439 </i>
    <i name="bandstr">      8.70400397 </i>
    <i name="atom">    103.42762056 </i>
    <i name="e_fr_energy">     -3.29159739 </i>
    <i name="e_wo_entrp">     -3.28941300 </i>
    <i name="e_0_energy">     -3.29050519 </i>
   </energy>
  </scstep>
  <scstep>
   <time name="dav">    0.14    0.14</time>
   <time name="total">    0.15    0.15</time>
   <energy>
    <i name="e_fr_energy">     -5.11111211 </i>
    <i name="e_wo_entrp">     -5.10775807 </i>
    <i name="e_0_energy">     -5.10943509 </i>
   </energy>
  </scstep>
  <scstep>
   <time name="dav">    0.12    0.12</time>
   <time name="total">    0.12    0.13</time>
   <energy>
    <i name="e_fr_energy">     -5.13117775 </i>
    <i name="e_wo_entrp">     -5.12726853 </i>
    <i name="e_0_energy">     -5.12922314 </i>
   </energy>
  </scstep>
  <scstep>
   <time name="dav">    0.15    0.15</time>
   <time name="total">    0.15    0.15</time>
   <energy>
    <i name="e_fr_energy">     -5.13120602 </i>
    <i name="e_wo_entrp">     -5.12729617 </i>
    <i name="e_0_energy">     -5.12925110 </i>
   </energy>
  </scstep>
  <scstep>
   <time name="dav">    0.12    0.12</time>
   <time name="total">    0.13    0.15</time>
   <energy>
    <i name="e_fr_energy">     -5.13120606 </i>
    <i name="e_wo_entrp">     -5.12729621 </i>
    <i name="e_0_energy">     -5.12925114 </i>
   </energy>
  </scstep>
  <scstep>
   <time name="dav">    0.11    0.12</time>
   <time name="total">    0.13    0.14</time>
   <energy>
    <i name="e_fr_energy">     -5.11884393 </i>
    <i name="e_wo_entrp">     -5.11489616 </i>
    <i name="e_0_energy">     -5.11687005 </i>
   </energy>
  </scstep>
  <scstep>
   <time name="dav">    0.10    0.11</time>
   <time name="total">    0.12    0.14</time>
   <energy>
    <i name="e_fr_energy">     -5.11314223 </i>
    <i name="e_wo_entrp">     -5.10913987 </i>
    <i name="e_0_energy">     -5.11114105 </i>
   </energy>
  </scstep>
  <scstep>
   <time name="dav">    0.12    0.12</time>
   <time name="total">    0.12    0.14</time>
   <energy>
    <i name="alphaZ">      1.19262302 </i>
    <i name="ewald">   -122.82983823 </i>
    <i name="hartreedc">     -1.35645963 </i>
    <i name="XCdc">     -9.51050910 </i>
    <i name="pawpsdc">     33.30233612 </i>
    <i name="pawaedc">    -15.86531883 </i>
    <i name="eentropy">     -0.00400266 </i>
    <i name="bandstr">      6.53043327 </i>
    <i name="atom">    103.42762056 </i>
    <i name="e_fr_energy">     -5.11311547 </i>
    <i name="e_wo_entrp">     -5.10911281 </i>
    <i name="e_0_energy">     -5.11111414 </i>
   </energy>
  </scstep>
  <structure>
   <crystal>
    <varray name="basis" >
     <v>       2.15000000       2.15000000       0.00000000 </v>
     <v>       0.00000000       2.15000000       2.15000000 </v>
     <v>       2.15000000       0.00000000       2.15000000 </v>
    </varray>
    <i name="volume">     19.87675000 </i>
    <varray name="rec_basis" >
     <v>       0.23255814       0.23255814      -0.23255814 </v>
     <v>      -0.23255814       0.23255814       0.23255814 </v>
     <v>       0.23255814      -0.23255814       0.23255814 </v>
    </varray>
   </crystal>
   <varray name="positions" >
    <v>       0.00000000       0.00000000       0.00000000 </v>
   </varray>
  </structure>
  <varray name="forces" >
   <v>       0.00000000       0.00000000       0.00000000 </v>
  </varray>
  <varray name="stress" >
   <v>    -159.49075844       0.00000000       0.00000000 </v>
   <v>       0.00000000    -159.49075844      -0.00000000 </v>
   <v>       0.00000000       0.00000000    -159.49075844 </v>
  </varray>
  <energy>
   <i name="e_fr_energy">     -5.11311547 </i>
   <i name="e_wo_entrp">     -5.11111414 </i>
   <i name="e_0_energy">     -0.00400266 </i>
  </energy>
  <time name="totalsc">    1.13    1.42</time>
 </calculation>
 <calculation>
  <scstep>
   <time name="dav">    0.11    0.11</time>
   <time name="total">    0.12    0.13</time>
   <energy>
    <i name="alphaZ">      1.61143781 </i>
    <i name="ewald">   -135.79194248 </i>
    <i name="hartreedc">     -1.49997196 </i>
    <i name="XCdc">     -8.94991117 </i>
    <i name="pawpsdc">     33.31596128 </i>
    <i name="pawaedc">    -15.87950622 </i>
    <i name="eentropy">     -0.00275426 </i>
    <i name="bandstr">     17.99349607 </i>
    <i name="atom">    103.42762056 </i>
    <i name="e_fr_energy">     -5.77557036 </i>
    <i name="e_wo_entrp">     -5.77281610 </i>
    <i name="e_0_energy">     -5.77419323 </i>
   </energy>
  </scstep>
  <scstep>
   <time name="dav">    0.12    0.12</time>
   <time name="total">    0.13    0.19</time>
   <energy>
    <i name="e_fr_energy">     -5.59879182 </i>
    <i name="e_wo_entrp">     -5.59597965 </i>
    <i name="e_0_energy">     -5.59738573 </i>
   </energy>
  </scstep>
  <scstep>
   <time name="dav">    0.11    0.11</time>
   <time name="total">    0.12    0.17</time>
   <energy>
    <i name="e_fr_energy">     -5.50606908 </i>
    <i name="e_wo_entrp">     -5.50299917 </i>
    <i name="e_0_energy">     -5.50453412 </i>
   </energy>
  </scstep>
  <scstep>
   <time name="dav">    0.13    0.13</time>
   <time name="total">    0.14    0.26</time>
   <energy>
    <i name="e_fr_energy">     -5.50579822 </i>
    <i name="e_wo_entrp">     -5.50272725 </i>
    <i name="e_0_energy">     -5.50426274 </i>
   </energy>
  </scstep>
  <scstep>
   <time name="dav">    0.07    0.07</time>
   <time name="total">    0.08    0.08</time>
   <energy>
    <i name="alphaZ">      1.61143781 </i>
    <i name="ewald">   -135.79194248 </i>
    <i name="hartreedc">     -0.50802682 </i>
    <i name="XCdc">     -8.80833313 </i>
    <i name="pawpsdc">     34.51329457 </i>
    <i name="pawaedc">    -17.11230261 </i>
    <i name="eentropy">     -0.00307174 </i>
    <i name="bandstr">     17.16559839 </i>
    <i name="atom">    103.42762056 </i>
    <i name="e_fr_energy">     -5.50572543 </i>
    <i name="e_wo_entrp">     -5.50265369 </i>
    <i name="e_0_energy">     -5.50418956 </i>
   </energy>
  </scstep>
  <structure>
   <crystal>
    <varray name="basis" >
     <v>       1.94477041       1.94477041      -0.00000000 </v>
     <v>       0.00000000       1.94477041       1.94477041 </v>
     <v>       1.94477041       0.00000000       1.94477041 </v>
    </varray>
    <i name="volume">     14.71075669 </i>
    <varray name="rec_basis" >
     <v>       0.25709976       0.25709976      -0.25709976 </v>
     <v>      -0.25709976       0.25709976       0.25709976 </v>
     <v>       0.25709976      -0.25709976       0.25709976 </v>
    </varray>
   </crystal>
   <varray name="positions" >
    <v>       0.00000000       0.00000000       0.00000000 </v>
   </varray>
  </structure>
  <varray name="forces" >
   <v>       0.00000000      -0.00000000       0.00000000 </v>
  </varray>
  <varray name="stress" >
   <v>     -45.28628962      -0.00000000      -0.00000000 </v>
   <v>       0.00000000     -45.28628962       0.00000000 </v>
   <v>      -0.00000000       0.00000000     -45.28628962 </v>
  </varray>
  <energy>
   <i name="e_fr_energy">     -5.50572543 </i>
   <i name="e_wo_entrp">     -5.50418956 </i>
   <i name="e_0_energy">     -0.00307174 </i>
  </energy>
  <time name="totalsc">    0.67    0.98</time>
 </calculation>
 <calculation>
  <scstep>
   <time name="dav">    0.11    0.11</time>
   <time name="total">    0.12    0.12</time>
   <energy>
    <i name="alphaZ">      1.69073402 </i>
    <i name="ewald">   -137.98374080 </i>
    <i name="hartreedc">     -0.51652389 </i>
    <i name="XCdc">     -8.71065492 </i>
    <i name="pawpsdc">     34.49498922 </i>
    <i name="pawaedc">    -17.09349437 </i>
    <i name="eentropy">     -0.00266885 </i>
    <i name="bandstr">     19.17103424 </i>
    <i name="atom">    103.42762056 </i>
    <i name="e_fr_energy">     -5.52270478 </i>
    <i name="e_wo_entrp">     -5.52003594 </i>
    <i name="e_0_energy">     -5.52137036 </i>
   </energy>
  </scstep>
  <scstep>
   <time name="dav">    0.12    0.12</time>
   <time name="total">    0.13    0.13</time>
   <energy>
    <i name="e_fr_energy">     -5.51921498 </i>
    <i name="e_wo_entrp">     -5.51657113 </i>
    <i name="e_0_energy">     -5.51789305 </i>
   </energy>
  </scstep>
  <scstep>
   <time name="dav">    0.11    0.11</time>
   <time name="total">    0.13    0.17</time>
   <energy>
    <i name="e_fr_energy">     -5.51732678 </i>
    <i name="e_wo_entrp">     -5.51470928 </i>
    <i name="e_0_energy">     -5.51601803 </i>
   </energy>
  </scstep>
  <scstep>
   <time name="dav">    0.07    0.07</time>
   <time name="total">    0.07    0.09</time>
   <energy>
    <i name="alphaZ">      1.69073402 </i>
    <i name="ewald">   -137.98374080 </i>
    <i name="hartreedc">     -0.43079847 </i>
    <i name="XCdc">     -8.68274955 </i>
    <i name="pawpsdc">     34.74858434 </i>
    <i name="pawaedc">    -17.35349986 </i>
    <i name="eentropy">     -0.00261776 </i>
    <i name="bandstr">     19.06914560 </i>
    <i name="atom">    103.42762056 </i>
    <i name="e_fr_energy">     -5.51732192 </i>
    <i name="e_wo_entrp">     -5.51470416 </i>
    <i name="e_0_energy">     -5.51601304 </i>
   </energy>
  </scstep>
  <structure>
   <crystal>
    <varray name="basis" >
     <v>       1.91387877       1.91387877      -0.00000000 </v>
     <v>       0.00000000       1.91387877       1.91387877 </v>
     <v>       1.91387877       0.00000000       1.91387877 </v>
    </varray>
    <i name="volume">     14.02081539 </i>
    <varray name="rec_basis" >
     <v>       0.26124957       0.26124957      -0.26124957 </v>
     <v>      -0.26124957       0.26124957       0.26124957 </v>
     <v>       0.26124957      -0.26124957       0.26124957 </v>
    </varray>
   </crystal>
   <varray name="positions" >
    <v>       0.00000000       0.00000000       0.00000000 </v>
   </varray>
  </structure>
  <varray name="forces" >
   <v>      -0.00000000       0.00000000       0.00000000 </v>
  </varray>
  <varray name="stress" >
   <v>      -5.84204465      -0.00000000      -0.00000000 </v>
   <v>       0.00000000      -5.84204465      -0.00000000 </v>
   <v>       0.00000000      -0.00000000      -5.84204465 </v>
  </varray>
  <energy>
   <i name="e_fr_energy">     -5.51732192 </i>
   <i name="e_wo_entrp">     -5.51601304 </i>
   <i name="e_0_energy">     -0.00261776 </i>
  </energy>
  <time name="totalsc">    0.52    0.82</time>
  <eigenvalues>
   <array>
    <dimension dim="1">band</dimension>
    <dimension dim="2">kpoint</dimension>
    <dimension dim="3">spin</dimension>
    <field>eigene</field>
    <field>occ</field>
    <set>
     <set comment="spin 1">
      <set comment="kpoint 1">
       <r>   -4.1353    1.0000 </r>
       <r>   21.8984    0.0000 </r>
       <r>   21.8984    0.0000 </r>
       <r>   21.8984    0.0000 </r>
       <r>   22.6272    0.0000 </r>
       <r>   22.6272    0.0000 </r>
      </set>
      <set comment="kpoint 2">
       <r>   -3.8902    1.0000 </r>
       <r>   18.6685    0.0000 </r>
       <r>   20.8986    0.0000 </r>
       <r>   20.8987    0.0000 </r>
       <r>   23.9116    0.0000 </r>
       <r>   23.9261    0.0000 </r>
      </set>
      <set comment="kpoint 3">
       <r>   -3.1567    1.0000 </r>
       <r>   14.7328    0.0000 </r>
       <r>   19.9795    0.0000 </r>
       <r>   19.9795    0.0000 </r>
       <r>   24.0214    0.0000 </r>
       <r>   24.9171    0.0000 </r>
      </set>
      <set comment="kpoint 4">
       <r>   -1.9405    1.0000 </r>
       <r>   10.9775    0.0000 </r>
       <r>   19.4344    0.0000 </r>
       <r>   19.4344    0.0000 </r>
       <r>   23.8234    0.0000 </r>
       <r>   23.9063    0.0000 </r>
      </set>
      <set comment="kpoint 5">
       <r>   -0.2520    1.0000 </r>
       <r>    7.5553    1.0000 </r>
       <r>   19.2367    0.0000 </r>
       <r>   19.2367    0.0000 </r>
       <r>   22.4945    0.0000 </r>
       <r>   22.4945    0.0000 </r>
      </set>
      <set comment="kpoint 6">
       <r>    1.8821    1.0000 </r>
       <r>    4.5482    1.0000 </r>
       <r>   19.2609    0.0000 </r>
       <r>   19.2609    0.0000 </r>
       <r>   21.6585    0.0000 </r>
       <r>   21.6586    0.0000 </r>
      </set>
      <set comment="kpoint 7">
       <r>   -3.8085    1.0000 </r>
       <r>   19.5021    0.0000 </r>
       <r>   19.5021    0.0000 </r>
       <r>   21.1181    0.0000 </r>
       <r>   21.1805    0.0000 </r>
       <r>   25.4263    0.0000 </r>
      </set>
      <set comment="kpoint 8">
       <r>   -3.2379    1.0000 </r>
       <r>   16.1881    0.0000 </r>
       <r>   18.4563    0.0000 </r>
       <r>   20.2391    0.0000 </r>
       <r>   22.0416    0.0000 </r>
       <r>   24.7468    0.0000 </r>
      </set>
      <set comment="kpoint 9">
       <r>   -2.1829    1.0000 </r>
       <r>   12.3843    0.0000 </r>
       <r>   17.8150    0.0000 </r>
       <r>   19.4478    0.0000 </r>
       <r>   21.6349    0.0000 </r>
       <r>   25.1164    0.0000 </r>
      </set>
      <set comment="kpoint 10">
       <r>   -0.6519    1.0000 </r>
       <r>    8.8537    1.0000 </r>
       <r>   17.5860    0.0000 </r>
       <r>   18.6504    0.0000 </r>
       <r>   20.6530    0.0000 </r>
       <r>   24.9003    0.0000 </r>
      </set>
      <set comment="kpoint 11">
       <r>    1.3384    1.0000 </r>
       <r>    5.7046    1.0000 </r>
       <r>   17.7043    0.0000 </r>
       <r>   17.7604    0.0000 </r>
       <r>   20.5055    0.0000 </r>
       <r>   23.6939    0.0000 </r>
      </set>
      <set comment="kpoint 12">
       <r>    2.8575    1.0000 </r>
       <r>    3.8946    1.0000 </r>
       <r>   16.9071    0.0000 </r>
       <r>   18.3187    0.0000 </r>
       <r>   21.0401    0.0000 </r>
       <r>   22.8942    0.0000 </r>
      </set>
      <set comment="kpoint 13">
       <r>    0.6259    1.0000 </r>
       <r>    6.7067    1.0000 </r>
       <r>   16.4549    0.0000 </r>
       <r>   19.1952    0.0000 </r>
       <r>   22.0747    0.0000 </r>
       <r>   22.5799    0.0000 </r>
      </set>
      <set comment="kpoint 14">
       <r>   -1.2145    1.0000 </r>
       <r>    9.9908    1.0000 </r>
       <r>   16.4055    0.0000 </r>
       <r>   20.2407    0.0000 </r>
       <r>   22.8842    0.0000 </r>
       <r>   23.5124    0.0000 </r>
      </set>
      <set comment="kpoint 15">
       <r>   -2.5880    1.0000 </r>
       <r>   13.6219    0.0000 </r>
       <r>   16.7786    0.0000 </r>
       <r>   21.2425    0.0000 </r>
       <r>   23.7054    0.0000 </r>
       <r>   24.9791    0.0000 </r>
      </set>
      <set comment="kpoint 16">
       <r>   -3.4823    1.0000 </r>
       <r>   17.2923    0.0000 </r>
       <r>   17.7408    0.0000 </r>
       <r>   21.9810    0.0000 </r>
       <r>   23.2597    0.0000 </r>
       <r>   24.5682    0.0000 </r>
      </set>
      <set comment="kpoint 17">
       <r>   -2.8312    1.0000 </r>
       <r>   17.2730    0.0000 </r>
       <r>   17.2731    0.0000 </r>
       <r>   18.8491    0.0000 </r>
       <r>   19.2511    0.0000 </r>
       <r>   22.2027    0.0000 </r>
      </set>
      <set comment="kpoint 18">
       <r>   -1.9397    1.0000 </r>
       <r>   14.1513    0.0000 </r>
       <r>   16.4970    0.0000 </r>
       <r>   17.7861    0.0000 </r>
       <r>   19.1847    0.0000 </r>
       <r>   21.7533    0.0000 </r>
      </set>
      <set comment="kpoint 19">
       <r>   -0.5704    1.0000 </r>
       <r>   10.5791    0.0350 </r>
       <r>   16.1379    0.0000 </r>
       <r>   16.2006    0.0000 </r>
       <r>   18.8511    0.0000 </r>
       <r>   23.9373    0.0000 </r>
      </set>
      <set comment="kpoint 20">
       <r>    1.2641    1.0000 </r>
       <r>    7.3192    1.0000 </r>
       <r>   14.7711    0.0000 </r>
       <r>   16.2002    0.0000 </r>
       <r>   18.8879    0.0000 </r>
       <r>   26.5321    0.0000 </r>
      </set>
      <set comment="kpoint 21">
       <r>    3.4928    1.0000 </r>
       <r>    4.5116    1.0000 </r>
       <r>   13.7009    0.0000 </r>
       <r>   16.6755    0.0000 </r>
       <r>   19.4050    0.0000 </r>
       <r>   25.6420    0.0000 </r>
      </set>
      <set comment="kpoint 22">
       <r>    1.9746    1.0000 </r>
       <r>    6.3138    1.0000 </r>
       <r>   13.0524    0.0000 </r>
       <r>   17.5542    0.0000 </r>
       <r>   20.3815    0.0000 </r>
       <r>   25.0837    0.0000 </r>
      </set>
      <set comment="kpoint 23">
       <r>   -0.0099    1.0000 </r>
       <r>    9.4260    1.0000 </r>
       <r>   12.8601    0.0000 </r>
       <r>   18.7983    0.0000 </r>
       <r>   21.7777    0.0000 </r>
       <r>   24.9623    0.0000 </r>
      </set>
      <set comment="kpoint 24">
       <r>   -1.5363    1.0000 </r>
       <r>   12.5669    0.0000 </r>
       <r>   13.4442    0.0000 </r>
       <r>   20.2938    0.0000 </r>
       <r>   23.4984    0.0000 </r>
       <r>   25.4499    0.0000 </r>
      </set>
      <set comment="kpoint 25">
       <r>   -1.2130    1.0000 </r>
       <r>   15.5805    0.0000 </r>
       <r>   15.5805    0.0000 </r>
       <r>   15.6036    0.0000 </r>
       <r>   16.9874    0.0000 </r>
       <r>   19.5105    0.0000 </r>
      </set>
      <set comment="kpoint 26">
       <r>   -0.0083    1.0000 </r>
       <r>   12.6328    0.0000 </r>
       <r>   13.6627    0.0000 </r>
       <r>   15.0826    0.0000 </r>
       <r>   17.4142    0.0000 </r>
       <r>   20.2265    0.0000 </r>
      </set>
      <set comment="kpoint 27">
       <r>    1.6629    1.0000 </r>
       <r>    9.3517    1.0000 </r>
       <r>   11.9600    0.0000 </r>
       <r>   15.0080    0.0000 </r>
       <r>   17.5446    0.0000 </r>
       <r>   22.9287    0.0000 </r>
      </set>
      <set comment="kpoint 28">
       <r>    3.7748    1.0000 </r>
       <r>    6.3938    1.0000 </r>
       <r>   10.6909    0.0003 </r>
       <r>   15.3551    0.0000 </r>
       <r>   17.9707    0.0000 </r>
       <r>   26.1146    0.0000 </r>
      </set>
      <set comment="kpoint 29">
       <r>    3.7791    1.0000 </r>
       <r>    6.3650    1.0000 </r>
       <r>    9.8899    1.0000 </r>
       <r>   16.1193    0.0000 </r>
       <r>   18.8341    0.0000 </r>
       <r>   28.1203    0.0000 </r>
      </set>
      <set comment="kpoint 30">
       <r>    1.6624    1.0000 </r>
       <r>    8.9174    1.0000 </r>
       <r>    9.9362    1.0000 </r>
       <r>   17.2860    0.0000 </r>
       <r>   20.1274    0.0000 </r>
       <r>   27.5957    0.0000 </r>
      </set>
      <set comment="kpoint 31">
       <r>    1.0290    1.0000 </r>
       <r>   11.3192    0.0000 </r>
       <r>   14.4449    0.0000 </r>
       <r>   14.4449    0.0000 </r>
       <r>   15.7103    0.0000 </r>
       <r>   18.2148    0.0000 </r>
      </set>
      <set comment="kpoint 32">
       <r>    2.5304    1.0000 </r>
       <r>    9.4360    1.0000 </r>
       <r>   11.8093    0.0000 </r>
       <r>   14.2307    0.0000 </r>
       <r>   16.4609    0.0000 </r>
       <r>   19.3600    0.0000 </r>
      </set>
      <set comment="kpoint 33">
       <r>    4.4657    1.0000 </r>
       <r>    7.9509    1.0000 </r>
       <r>    8.8533    1.0000 </r>
       <r>   14.4407    0.0000 </r>
       <r>   16.9142    0.0000 </r>
       <r>   22.3996    0.0000 </r>
      </set>
      <set comment="kpoint 34">
       <r>    5.9901    1.0000 </r>
       <r>    6.4671    1.0000 </r>
       <r>    7.5469    1.0000 </r>
       <r>   15.0729    0.0000 </r>
       <r>   17.6671    0.0000 </r>
       <r>   25.9208    0.0000 </r>
      </set>
      <set comment="kpoint 35">
       <r>    3.8452    1.0000 </r>
       <r>    7.4075    1.0000 </r>
       <r>   13.8760    0.0000 </r>
       <r>   13.8760    0.0000 </r>
       <r>   15.0682    0.0000 </r>
       <r>   17.6053    0.0000 </r>
      </set>
      <set comment="kpoint 36">
       <r>    5.2402    1.0000 </r>
       <r>    6.1787    1.0000 </r>
       <r>   11.4992    0.0000 </r>
       <r>   13.9460    0.0000 </r>
       <r>   16.1419    0.0000 </r>
       <r>   19.0682    0.0000 </r>
      </set>
      <set comment="kpoint 37">
       <r>   -2.5067    1.0000 </r>
       <r>   14.9559    0.0000 </r>
       <r>   15.6010    0.0000 </r>
       <r>   20.2014    0.0000 </r>
       <r>   21.6950    0.0000 </r>
       <r>   23.3614    0.0000 </r>
      </set>
      <set comment="kpoint 38">
       <r>   -1.2944    1.0000 </r>
       <r>   11.5386    0.0000 </r>
       <r>   14.8273    0.0000 </r>
       <r>   18.6442    0.0000 </r>
       <r>   21.7841    0.0000 </r>
       <r>   24.4910    0.0000 </r>
      </set>
      <set comment="kpoint 39">
       <r>    0.3890    1.0000 </r>
       <r>    8.1594    1.0000 </r>
       <r>   14.7252    0.0000 </r>
       <r>   17.1446    0.0000 </r>
       <r>   21.6461    0.0000 </r>
       <r>   24.0827    0.0000 </r>
      </set>
      <set comment="kpoint 40">
       <r>    2.5175    1.0000 </r>
       <r>    5.1664    1.0000 </r>
       <r>   15.0115    0.0000 </r>
       <r>   16.0263    0.0000 </r>
       <r>   21.8212    0.0000 </r>
       <r>   23.1230    0.0000 </r>
      </set>
      <set comment="kpoint 41">
       <r>   -0.8913    1.0000 </r>
       <r>   13.1632    0.0000 </r>
       <r>   13.8681    0.0000 </r>
       <r>   16.0968    0.0000 </r>
       <r>   19.9770    0.0000 </r>
       <r>   21.4072    0.0000 </r>
      </set>
      <set comment="kpoint 42">
       <r>    0.6299    1.0000 </r>
       <r>   10.0228    1.0000 </r>
       <r>   13.3013    0.0000 </r>
       <r>   14.3747    0.0000 </r>
       <r>   20.3489    0.0000 </r>
       <r>   23.4846    0.0000 </r>
      </set>
      <set comment="kpoint 43">
       <r>    2.6071    1.0000 </r>
       <r>    6.9272    1.0000 </r>
       <r>   12.7503    0.0000 </r>
       <r>   13.7322    0.0000 </r>
       <r>   20.6171    0.0000 </r>
       <r>   25.6100    0.0000 </r>
      </set>
      <set comment="kpoint 44">
       <r>    4.1259    1.0000 </r>
       <r>    5.1203    1.0000 </r>
       <r>   11.8598    0.0000 </r>
       <r>   14.3152    0.0000 </r>
       <r>   21.2573    0.0000 </r>
       <r>   25.0806    0.0000 </r>
      </set>
      <set comment="kpoint 45">
       <r>    1.8993    1.0000 </r>
       <r>    7.8963    1.0000 </r>
       <r>   11.3772    0.0000 </r>
       <r>   15.3902    0.0000 </r>
       <r>   22.2601    0.0000 </r>
       <r>   24.6452    0.0000 </r>
      </set>
      <set comment="kpoint 46">
       <r>    0.0706    1.0000 </r>
       <r>   10.7483    0.0000 </r>
       <r>   11.7018    0.0000 </r>
       <r>   16.8795    0.0000 </r>
       <r>   23.4203    0.0000 </r>
       <r>   24.0687    0.0000 </r>
      </set>
      <set comment="kpoint 47">
       <r>    1.3465    1.0000 </r>
       <r>   11.5453    0.0000 </r>
       <r>   11.9567    0.0000 </r>
       <r>   12.9024    0.0000 </r>
       <r>   18.7841    0.0000 </r>
       <r>   20.2850    0.0000 </r>
      </set>
      <set comment="kpoint 48">
       <r>    3.1583    1.0000 </r>
       <r>    9.0668    1.0000 </r>
       <r>   10.1057    1.0000 </r>
       <r>   12.5740    0.0000 </r>
       <r>   19.4807    0.0000 </r>
       <r>   22.7479    0.0000 </r>
      </set>
      <set comment="kpoint 49">
       <r>    5.3605    1.0000 </r>
       <r>    6.3250    1.0000 </r>
       <r>    8.9812    1.0000 </r>
       <r>   13.0570    0.0000 </r>
       <r>   20.0627    0.0000 </r>
       <r>   26.0069    0.0000 </r>
      </set>
      <set comment="kpoint 50">
       <r>    3.8628    1.0000 </r>
       <r>    7.6933    1.0000 </r>
       <r>    8.7205    1.0000 </r>
       <r>   14.0078    0.0000 </r>
       <r>   21.0120    0.0000 </r>
       <r>   27.7073    0.0000 </r>
      </set>
      <set comment="kpoint 51">
       <r>    4.1566    1.0000 </r>
       <r>    7.7074    1.0000 </r>
       <r>   11.3516    0.0000 </r>
       <r>   12.2354    0.0000 </r>
       <r>   18.1819    0.0000 </r>
       <r>   19.7263    0.0000 </r>
      </set>
      <set comment="kpoint 52">
       <r>    5.8538    1.0000 </r>
       <r>    6.7739    1.0000 </r>
       <r>    8.8582    1.0000 </r>
       <r>   12.2600    0.0000 </r>
       <r>   19.1865    0.0000 </r>
       <r>   22.4888    0.0000 </r>
      </set>
      <set comment="kpoint 53">
       <r>    2.2954    1.0000 </r>
       <r>    9.5293    1.0000 </r>
       <r>   10.4702    0.3931 </r>
       <r>   12.6432    0.0000 </r>
       <r>   22.9516    0.0000 </r>
       <r>   23.5675    0.0000 </r>
      </set>
      <set comment="kpoint 54">
       <r>    4.4011    1.0000 </r>
       <r>    6.9742    1.0000 </r>
       <r>   10.3888    0.8105 </r>
       <r>   11.4311    0.0000 </r>
       <r>   23.4397    0.0000 </r>
       <r>   24.7287    0.0000 </r>
      </set>
      <set comment="kpoint 55">
       <r>    5.0860    1.0000 </r>
       <r>    8.5452    1.0000 </r>
       <r>    8.9192    1.0000 </r>
       <r>   10.0792    1.0000 </r>
       <r>   22.3755    0.0000 </r>
       <r>   23.2651    0.0000 </r>
      </set>
      <set comment="kpoint 56">
       <r>    6.5904    1.0000 </r>
       <r>    7.0801    1.0000 </r>
       <r>    8.0905    1.0000 </r>
       <r>   10.2800    0.9922 </r>
       <r>   23.3691    0.0000 </r>
       <r>   26.0205    0.0000 </r>
      </set>
     </set>
    </set>
   </array>
  </eigenvalues>
  <separator name="orbital magnetization" >
   <v name="MAGDIPOLOUT">      0.00000000      0.00000000      0.00000000</v>
  </separator>
  <dos>
   <i name="efermi">     10.45098789 </i>
   <total>
    <array>
     <dimension dim="1">gridpoints</dimension>
     <dimension dim="2">spin</dimension>
     <field>energy</field>
     <field>total</field>
     <field>integrated</field>
     <set>
      <set comment="spin 1">
       <r>    -5.7481     0.0000     0.0000 </r>
       <r>    -5.6298     0.0000     0.0000 </r>
       <r>    -5.5115     0.0000     0.0000 </r>
       <r>    -5.3933     0.0000     0.0000 </r>
       <r>    -5.2750     0.0000     0.0000 </r>
       <r>    -5.1567     0.0000     0.0000 </r>
       <r>    -5.0385     0.0000     0.0000 </r>
       <r>    -4.9202     0.0000     0.0000 </r>
       <r>    -4.8019     0.0000     0.0000 </r>
       <r>    -4.6837     0.0000     0.0000 </r>
       <r>    -4.5654     0.0000     0.0000 </r>
       <r>    -4.4471     0.0000     0.0000 </r>
       <r>    -4.3288     0.0000     0.0000 </r>
       <r>    -4.2106     0.0018     0.0002 </r>
       <r>    -4.0923     0.0076     0.0011 </r>
       <r>    -3.9740     0.0158     0.0030 </r>
       <r>    -3.8558     0.0765     0.0120 </r>
       <r>    -3.7375     0.0753     0.0209 </r>
       <r>    -3.6192     0.0173     0.0230 </r>
       <r>    -3.5010     0.0567     0.0297 </r>
       <r>    -3.3827     0.0862     0.0399 </r>
       <r>    -3.2644     0.1201     0.0541 </r>
       <r>    -3.1461     0.2179     0.0799 </r>
       <r>    -3.0279     0.0707     0.0882 </r>
       <r>    -2.9096     0.0139     0.0899 </r>
       <r>    -2.7913     0.0448     0.0952 </r>
       <r>    -2.6731     0.0580     0.1020 </r>
       <r>    -2.5548     0.2464     0.1312 </r>
       <r>    -2.4365     0.2728     0.1634 </r>
       <r>    -2.3182     0.0611     0.1707 </r>
       <r>    -2.2000     0.1161     0.1844 </r>
       <r>    -2.0817     0.1674     0.2042 </r>
       <r>    -1.9634     0.1641     0.2236 </r>
       <r>    -1.8452     0.2199     0.2496 </r>
       <r>    -1.7269     0.0367     0.2539 </r>
       <r>    -1.6086     0.0234     0.2567 </r>
       <r>    -1.4904     0.0915     0.2675 </r>
       <r>    -1.3721     0.1239     0.2822 </r>
       <r>    -1.2538     0.4606     0.3367 </r>
       <r>    -1.1355     0.3859     0.3823 </r>
       <r>    -1.0173     0.0685     0.3904 </r>
       <r>    -0.8990     0.1290     0.4057 </r>
       <r>    -0.7807     0.1585     0.4244 </r>
       <r>    -0.6625     0.1706     0.4446 </r>
       <r>    -0.5442     0.3184     0.4822 </r>
       <r>    -0.4259     0.1221     0.4967 </r>
       <r>    -0.3076     0.0276     0.5000 </r>
       <r>    -0.1894     0.0640     0.5075 </r>
       <r>    -0.0711     0.1382     0.5239 </r>
       <r>     0.0472     0.4703     0.5795 </r>
       <r>     0.1654     0.2909     0.6139 </r>
       <r>     0.2837     0.0723     0.6225 </r>
       <r>     0.4020     0.3087     0.6590 </r>
       <r>     0.5202     0.2981     0.6942 </r>
       <r>     0.6385     0.4703     0.7498 </r>
       <r>     0.7568     0.3744     0.7941 </r>
       <r>     0.8751     0.0328     0.7980 </r>
       <r>     0.9933     0.0225     0.8007 </r>
       <r>     1.1116     0.0486     0.8064 </r>
       <r>     1.2299     0.1340     0.8223 </r>
       <r>     1.3481     0.4639     0.8771 </r>
       <r>     1.4664     0.2973     0.9123 </r>
       <r>     1.5847     0.0853     0.9224 </r>
       <r>     1.7029     0.2679     0.9541 </r>
       <r>     1.8212     0.2289     0.9811 </r>
       <r>     1.9395     0.5102     1.0415 </r>
       <r>     2.0578     0.3606     1.0841 </r>
       <r>     2.1760     0.0579     1.0910 </r>
       <r>     2.2943     0.1379     1.1073 </r>
       <r>     2.4126     0.1973     1.1306 </r>
       <r>     2.5308     0.5457     1.1952 </r>
       <r>     2.6491     0.7341     1.2820 </r>
       <r>     2.7674     0.2248     1.3086 </r>
       <r>     2.8857     0.1762     1.3294 </r>
       <r>     3.0039     0.1082     1.3422 </r>
       <r>     3.1222     0.1828     1.3638 </r>
       <r>     3.2405     0.3493     1.4051 </r>
       <r>     3.3587     0.0822     1.4149 </r>
       <r>     3.4770     0.1181     1.4288 </r>
       <r>     3.5953     0.1601     1.4478 </r>
       <r>     3.7135     0.1411     1.4644 </r>
       <r>     3.8318     0.5448     1.5289 </r>
       <r>     3.9501     0.5251     1.5910 </r>
       <r>     4.0684     0.2605     1.6218 </r>
       <r>     4.1866     0.5378     1.6854 </r>
       <r>     4.3049     0.2687     1.7172 </r>
       <r>     4.4232     0.4511     1.7705 </r>
       <r>     4.5414     0.6071     1.8423 </r>
       <r>     4.6597     0.2027     1.8663 </r>
       <r>     4.7780     0.0123     1.8678 </r>
       <r>     4.8963     0.0017     1.8680 </r>
       <r>     5.0145     0.0968     1.8794 </r>
       <r>     5.1328     0.6804     1.9599 </r>
       <r>     5.2511     0.7753     2.0516 </r>
       <r>     5.3693     0.4517     2.1050 </r>
       <r>     5.4876     0.2594     2.1357 </r>
       <r>     5.6059     0.0465     2.1412 </r>
       <r>     5.7241     0.1712     2.1614 </r>
       <r>     5.8424     0.2370     2.1894 </r>
       <r>     5.9607     0.2088     2.2141 </r>
       <r>     6.0790     0.1168     2.2280 </r>
       <r>     6.1972     0.1357     2.2440 </r>
       <r>     6.3155     0.5613     2.3104 </r>
       <r>     6.4338     0.8474     2.4106 </r>
       <r>     6.5520     0.3600     2.4532 </r>
       <r>     6.6703     0.3085     2.4897 </r>
       <r>     6.7886     0.3873     2.5355 </r>
       <r>     6.9068     0.4800     2.5922 </r>
       <r>     7.0251     0.7597     2.6821 </r>
       <r>     7.1434     0.3725     2.7261 </r>
       <r>     7.2617     0.1237     2.7408 </r>
       <r>     7.3799     0.2107     2.7657 </r>
       <r>     7.4982     0.1579     2.7844 </r>
       <r>     7.6165     0.2313     2.8117 </r>
       <r>     7.7347     0.3962     2.8586 </r>
       <r>     7.8530     0.3662     2.9019 </r>
       <r>     7.9713     0.5445     2.9663 </r>
       <r>     8.0896     0.4295     3.0171 </r>
       <r>     8.2078     0.5096     3.0774 </r>
       <r>     8.3261     0.1600     3.0963 </r>
       <r>     8.4444     0.0289     3.0997 </r>
       <r>     8.5626     0.1626     3.1189 </r>
       <r>     8.6809     0.2047     3.1431 </r>
       <r>     8.7992     0.3989     3.1903 </r>
       <r>     8.9174     0.9094     3.2979 </r>
       <r>     9.0357     0.9323     3.4081 </r>
       <r>     9.1540     0.5001     3.4673 </r>
       <r>     9.2723     0.1166     3.4811 </r>
       <r>     9.3905     0.3505     3.5225 </r>
       <r>     9.5088     0.5485     3.5874 </r>
       <r>     9.6271     0.2472     3.6166 </r>
       <r>     9.7453     0.0337     3.6206 </r>
       <r>     9.8636     0.1439     3.6376 </r>
       <r>     9.9819     0.5968     3.7082 </r>
       <r>    10.1002     0.9964     3.8261 </r>
       <r>    10.2184     0.5635     3.8927 </r>
       <r>    10.3367     0.3696     3.9364 </r>
       <r>    10.4550     0.5551     4.0021 </r>
       <r>    10.5732     0.4090     4.0504 </r>
       <r>    10.6915     0.3711     4.0943 </r>
       <r>    10.8098     0.3373     4.1342 </r>
       <r>    10.9280     0.0949     4.1454 </r>
       <r>    11.0463     0.0620     4.1528 </r>
       <r>    11.1646     0.0196     4.1551 </r>
       <r>    11.2829     0.1376     4.1714 </r>
       <r>    11.4011     0.7828     4.2640 </r>
       <r>    11.5194     1.0403     4.3870 </r>
       <r>    11.6377     0.6797     4.4674 </r>
       <r>    11.7559     0.3742     4.5116 </r>
       <r>    11.8742     0.6292     4.5861 </r>
       <r>    11.9925     0.6393     4.6617 </r>
       <r>    12.1107     0.2193     4.6876 </r>
       <r>    12.2290     0.2389     4.7159 </r>
       <r>    12.3473     0.4051     4.7638 </r>
       <r>    12.4656     0.2786     4.7967 </r>
       <r>    12.5838     0.5545     4.8623 </r>
       <r>    12.7021     0.8206     4.9594 </r>
       <r>    12.8204     0.6155     5.0322 </r>
       <r>    12.9386     0.4954     5.0907 </r>
       <r>    13.0569     0.5703     5.1582 </r>
       <r>    13.1752     0.5890     5.2279 </r>
       <r>    13.2935     0.4208     5.2776 </r>
       <r>    13.4117     0.3534     5.3194 </r>
       <r>    13.5300     0.1639     5.3388 </r>
       <r>    13.6483     0.4412     5.3910 </r>
       <r>    13.7665     0.8187     5.4878 </r>
       <r>    13.8848     0.5353     5.5511 </r>
       <r>    14.0031     0.4182     5.6006 </r>
       <r>    14.1213     0.3065     5.6368 </r>
       <r>    14.2396     0.4398     5.6888 </r>
       <r>    14.3579     0.7974     5.7831 </r>
       <r>    14.4762     0.7471     5.8715 </r>
       <r>    14.5944     0.2138     5.8968 </r>
       <r>    14.7127     0.3794     5.9417 </r>
       <r>    14.8310     0.8450     6.0416 </r>
       <r>    14.9492     0.6941     6.1237 </r>
       <r>    15.0675     0.9377     6.2346 </r>
       <r>    15.1858     0.4701     6.2902 </r>
       <r>    15.3041     0.1759     6.3110 </r>
       <r>    15.4223     0.5293     6.3736 </r>
       <r>    15.5406     0.3530     6.4153 </r>
       <r>    15.6589     0.3445     6.4561 </r>
       <r>    15.7771     0.1425     6.4729 </r>
       <r>    15.8954     0.0362     6.4772 </r>
       <r>    16.0137     0.3207     6.5152 </r>
       <r>    16.1319     0.9890     6.6321 </r>
       <r>    16.2502     1.0212     6.7529 </r>
       <r>    16.3685     0.3984     6.8000 </r>
       <r>    16.4868     0.6464     6.8765 </r>
       <r>    16.6050     0.4349     6.9279 </r>
       <r>    16.7233     0.2821     6.9613 </r>
       <r>    16.8416     0.4407     7.0134 </r>
       <r>    16.9598     0.6226     7.0870 </r>
       <r>    17.0781     0.3290     7.1259 </r>
       <r>    17.1964     0.4258     7.1763 </r>
       <r>    17.3147     0.4162     7.2255 </r>
       <r>    17.4329     0.3443     7.2662 </r>
       <r>    17.5512     0.5214     7.3279 </r>
       <r>    17.6695     0.7333     7.4146 </r>
       <r>    17.7877     0.8179     7.5114 </r>
       <r>    17.9060     0.5387     7.5751 </r>
       <r>    18.0243     0.2373     7.6031 </r>
       <r>    18.1425     0.1642     7.6226 </r>
       <r>    18.2608     0.2856     7.6564 </r>
       <r>    18.3791     0.2816     7.6897 </r>
       <r>    18.4974     0.2541     7.7197 </r>
       <r>    18.6156     0.3987     7.7669 </r>
       <r>    18.7339     0.7467     7.8552 </r>
       <r>    18.8522     0.9004     7.9617 </r>
       <r>    18.9704     0.5893     8.0314 </r>
       <r>    19.0887     0.2233     8.0578 </r>
       <r>    19.2070     0.6675     8.1367 </r>
       <r>    19.3252     0.7868     8.2298 </r>
       <r>    19.4435     0.8914     8.3352 </r>
       <r>    19.5618     0.8398     8.4345 </r>
       <r>    19.6801     0.2252     8.4612 </r>
       <r>    19.7983     0.1858     8.4831 </r>
       <r>    19.9166     0.1530     8.5012 </r>
       <r>    20.0349     0.5235     8.5631 </r>
       <r>    20.1531     0.7222     8.6486 </r>
       <r>    20.2714     1.0906     8.7775 </r>
       <r>    20.3897     1.0734     8.9045 </r>
       <r>    20.5080     0.5248     8.9666 </r>
       <r>    20.6262     0.5542     9.0321 </r>
       <r>    20.7445     0.4357     9.0836 </r>
       <r>    20.8628     0.1175     9.0975 </r>
       <r>    20.9810     0.2744     9.1300 </r>
       <r>    21.0993     0.4291     9.1807 </r>
       <r>    21.2176     0.4486     9.2338 </r>
       <r>    21.3358     0.5962     9.3043 </r>
       <r>    21.4541     0.2929     9.3390 </r>
       <r>    21.5724     0.2587     9.3696 </r>
       <r>    21.6907     0.9540     9.4824 </r>
       <r>    21.8089     1.3577     9.6430 </r>
       <r>    21.9272     0.7767     9.7348 </r>
       <r>    22.0455     0.4067     9.7829 </r>
       <r>    22.1637     0.4046     9.8308 </r>
       <r>    22.2820     0.4585     9.8850 </r>
       <r>    22.4003     0.5830     9.9540 </r>
       <r>    22.5186     0.5950    10.0243 </r>
       <r>    22.6368     0.4176    10.0737 </r>
       <r>    22.7551     0.3977    10.1207 </r>
       <r>    22.8734     0.5974    10.1914 </r>
       <r>    22.9916     0.7145    10.2759 </r>
       <r>    23.1099     0.4314    10.3269 </r>
       <r>    23.2282     0.4667    10.3821 </r>
       <r>    23.3464     0.6483    10.4588 </r>
       <r>    23.4647     1.2490    10.6065 </r>
       <r>    23.5830     1.1102    10.7378 </r>
       <r>    23.7013     0.5326    10.8008 </r>
       <r>    23.8195     0.3691    10.8445 </r>
       <r>    23.9378     0.4114    10.8931 </r>
       <r>    24.0561     0.6315    10.9678 </r>
       <r>    24.1743     0.5399    11.0317 </r>
       <r>    24.2926     0.0822    11.0414 </r>
       <r>    24.4109     0.0803    11.0509 </r>
       <r>    24.5291     0.4262    11.1013 </r>
       <r>    24.6474     0.6406    11.1770 </r>
       <r>    24.7657     0.8199    11.2740 </r>
       <r>    24.8840     0.5304    11.3367 </r>
       <r>    25.0022     0.7063    11.4203 </r>
       <r>    25.1205     0.8958    11.5262 </r>
       <r>    25.2388     0.3989    11.5734 </r>
       <r>    25.3570     0.0511    11.5794 </r>
       <r>    25.4753     0.1485    11.5970 </r>
       <r>    25.5936     0.3737    11.6412 </r>
       <r>    25.7119     0.4997    11.7003 </r>
       <r>    25.8301     0.1130    11.7137 </r>
       <r>    25.9484     0.2553    11.7439 </r>
       <r>    26.0667     0.6669    11.8227 </r>
       <r>    26.1849     0.3762    11.8672 </r>
       <r>    26.3032     0.0544    11.8737 </r>
       <r>    26.4215     0.0190    11.8759 </r>
       <r>    26.5397     0.1477    11.8934 </r>
       <r>    26.6580     0.1279    11.9085 </r>
       <r>    26.7763     0.0113    11.9098 </r>
       <r>    26.8946     0.0001    11.9098 </r>
       <r>    27.0128     0.0000    11.9098 </r>
       <r>    27.1311     0.0000    11.9098 </r>
       <r>    27.2494     0.0000    11.9098 </r>
       <r>    27.3676     0.0001    11.9099 </r>
       <r>    27.4859     0.0094    11.9110 </r>
       <r>    27.6042     0.0961    11.9223 </r>
       <r>    27.7225     0.2196    11.9483 </r>
       <r>    27.8407     0.1232    11.9629 </r>
       <r>    27.9590     0.0124    11.9643 </r>
       <r>    28.0773     0.0794    11.9737 </r>
       <r>    28.1955     0.1783    11.9948 </r>
       <r>    28.3138     0.0428    11.9999 </r>
       <r>    28.4321     0.0009    12.0000 </r>
       <r>    28.5503     0.0000    12.0000 </r>
       <r>    28.6686     0.0000    12.0000 </r>
       <r>    28.7869     0.0000    12.0000 </r>
       <r>    28.9052     0.0000    12.0000 </r>
       <r>    29.0234     0.0000    12.0000 </r>
       <r>    29.1417     0.0000    12.0000 </r>
       <r>    29.2600     0.0000    12.0000 </r>
       <r>    29.3782     0.0000    12.0000 </r>
       <r>    29.4965     0.0000    12.0000 </r>
       <r>    29.6148     0.0000    12.0000 </r>
       <r>    29.7330     0.0000    12.0000 </r>
      </set>
     </set>
    </array>
   </total>
  </dos>
 </calculation>
 <structure name="finalpos" >
  <crystal>
   <varray name="basis" >
    <v>       1.91387877       1.91387877      -0.00000000 </v>
    <v>       0.00000000       1.91387877       1.91387877 </v>
    <v>       1.91387877       0.00000000       1.91387877 </v>
   </varray>
   <i name="volume">     14.02081539 </i>
   <varray name="rec_basis" >
    <v>       0.26124957       0.26124957      -0.26124957 </v>
    <v>      -0.26124957       0.26124957       0.26124957 </v>
    <v>       0.26124957      -0.26124957       0.26124957 </v>
   </varray>
  </crystal>
  <varray name="positions" >
   <v>       0.00000000       0.00000000       0.00000000 </v>
  </varray>
 </structure>
</modeling>
