diamond Si                              
           1
     2.150000    2.150000    0.000000
     0.000000    2.150000    2.150000
     2.150000    0.000000    2.150000
   Si
   1
diamond Si                              
           1
     1.944770    1.944770   -0.000000
     0.000000    1.944770    1.944770
     1.944770    0.000000    1.944770
   Si
   1
Direct configuration=     1
   0.00000000  0.00000000  0.00000000
diamond Si                              
           1
     1.913879    1.913879   -0.000000
     0.000000    1.913879    1.913879
     1.913879    0.000000    1.913879
   Si
   1
Direct configuration=     2
   0.00000000  0.00000000  0.00000000
diamond Si                              
           1
     1.913879    1.913879   -0.000000
     0.000000    1.913879    1.913879
     1.913879    0.000000    1.913879
   Si
   1
Direct configuration=     3
   0.00000000  0.00000000  0.00000000
