 running on    1 total cores
 distrk:  each k-point on    1 cores,    1 groups
 distr:  one band on    1 cores,    1 groups
 using from now: INCAR     
 vasp.5.3.5 31Mar14 (build Feb  5 2015 19:39:53) complex                        
  
 POSCAR found :  1 types and       1 ions
 scaLAPACK will be used
 LDA part: xc-table for Ceperly-Alder, standard interpolation
 POSCAR, INCAR and KPOINTS ok, starting setup
 WARNING: small aliasing (wrap around) errors must be expected
 FFT: planning ...
 WAVECAR not read
 entering main loop
       N       E                     dE             d eps       ncg     rms          rms(c)
DAV:   1    -0.329159738958E+01   -0.32916E+01   -0.10223E+03   732   0.271E+02
DAV:   2    -0.511111211082E+01   -0.18195E+01   -0.16885E+01   972   0.265E+01
DAV:   3    -0.513117775347E+01   -0.20066E-01   -0.19830E-01   810   0.273E+00
DAV:   4    -0.513120602058E+01   -0.28267E-04   -0.28267E-04  1002   0.109E-01
DAV:   5    -0.513120606471E+01   -0.44132E-07   -0.45149E-07   786   0.297E-03    0.630E-01
DAV:   6    -0.511884393309E+01    0.12362E-01   -0.67959E-03   768   0.434E-01    0.360E-01
DAV:   7    -0.511314222992E+01    0.57017E-02   -0.11376E-02   702   0.559E-01    0.282E-02
DAV:   8    -0.511311547215E+01    0.26758E-04   -0.45796E-05   762   0.607E-02
   1 F= -.51131155E+01 E0= -.51111141E+01  d E =-.511312E+01
 curvature:   0.00 expect dE= 0.000E+00 dE for cont linesearch  0.000E+00
 trial: gam= 0.00000 g(F)=  0.000E+00 g(S)=  0.567E+00 ort = 0.000E+00 (trialstep = 0.100E+01)
 search vector abs. value=  0.567E+00
 bond charge predicted
       N       E                     dE             d eps       ncg     rms          rms(c)
DAV:   1    -0.577557036080E+01   -0.66243E+00   -0.12033E+01   726   0.194E+01    0.236E+00
DAV:   2    -0.559879182174E+01    0.17678E+00   -0.90886E-02   804   0.232E+00    0.136E+00
DAV:   3    -0.550606907663E+01    0.92723E-01   -0.13052E-01   714   0.198E+00    0.645E-02
DAV:   4    -0.550579821789E+01    0.27086E-03   -0.33686E-04   900   0.191E-01    0.289E-02
DAV:   5    -0.550572543484E+01    0.72783E-04   -0.11278E-05   408   0.317E-02
   2 F= -.55057254E+01 E0= -.55041896E+01  d E =-.392610E+00
 trial-energy change:   -0.392610  1 .order   -0.342847   -0.566622   -0.119073
 step:   1.1505(harm=  1.2661)  dis= 0.00000  next Energy=    -5.514857 (dE=-0.402E+00)
 bond charge predicted
       N       E                     dE             d eps       ncg     rms          rms(c)
DAV:   1    -0.552270478414E+01   -0.16907E-01   -0.26400E-01   708   0.275E+00    0.346E-01
DAV:   2    -0.551921498140E+01    0.34898E-02   -0.19413E-03   774   0.364E-01    0.200E-01
DAV:   3    -0.551732677904E+01    0.18882E-02   -0.24990E-03   756   0.279E-01    0.820E-03
DAV:   4    -0.551732192280E+01    0.48562E-05   -0.57331E-06   372   0.256E-02
   3 F= -.55173219E+01 E0= -.55160130E+01  d E =-.404206E+00
 curvature:  -0.51 expect dE=-0.194E-03 dE for cont linesearch -0.194E-03
 trial: gam=-0.02517 g(F)=  0.123E-65 g(S)=  0.378E-03 ort = 0.146E-01 (trialstep = 0.103E+01)
 search vector abs. value=  0.253E-06
 reached required accuracy - stopping structural energy minimisation
 writing wavefunctions
