diamond Si                              
   5.50000000000000     
     0.000000    0.490819    0.490819
     0.490819    0.000000    0.490819
     0.490819    0.490819    0.000000
   Si
     2
Direct
  0.875000  0.875000  0.875000
  0.125000  0.125000  0.125000
 
   28   28   28
 0.22434654051E+02 0.22364801156E+02 0.22073878490E+02 0.21297284689E+02 0.19797238404E+02
 0.17823058571E+02 0.16097090529E+02 0.15408331975E+02 0.16097456452E+02 0.17823342197E+02
 0.19796980942E+02 0.21296555029E+02 0.22073292961E+02 0.22364844024E+02 0.22435054433E+02
 0.22364844024E+02 0.22073292961E+02 0.21296555029E+02 0.19796980942E+02 0.17823342197E+02
 0.16097456452E+02 0.15408331975E+02 0.16097090529E+02 0.17823058571E+02 0.19797238404E+02
 0.21297284689E+02 0.22073878490E+02 0.22364801156E+02 0.22364801156E+02 0.22706128909E+02
 0.22424244707E+02 0.21020509948E+02 0.18553919461E+02 0.15823398167E+02 0.14018793189E+02
 0.14019119979E+02 0.15823981945E+02 0.18554088891E+02 0.21020178784E+02 0.22423960289E+02
 0.22706275851E+02 0.22365072153E+02 0.21802953062E+02 0.21130700625E+02 0.20310043815E+02
 0.19241132317E+02 0.17885926574E+02 0.16521956715E+02 0.15646357095E+02 0.15646362216E+02
 0.16521971406E+02 0.17886047985E+02 0.19241578286E+02 0.20310829227E+02 0.21131412426E+02
 0.21803130335E+02 0.22073878490E+02 0.22424244707E+02 0.21440179231E+02 0.18855680462E+02
 0.15307653946E+02 0.12193574106E+02 0.10952220260E+02 0.12193597382E+02 0.15307913924E+02
 0.18856136582E+02 0.21440429210E+02 0.22424048017E+02 0.22073508544E+02 0.21131237517E+02
 0.20039656181E+02 0.18918525197E+02 0.17772027734E+02 0.16603233656E+02 0.15495318137E+02
 0.14652970509E+02 0.14333099775E+02 0.14652614070E+02 0.15495235338E+02 0.16603791001E+02
 0.17772828062E+02 0.18918983981E+02 0.20039761341E+02 0.21131412426E+02 0.21297284689E+02
 0.21020509948E+02 0.18855680462E+02 0.15063098017E+02 0.10926722428E+02 0.82192932924E+01
 0.82190431689E+01 0.10926503767E+02 0.15063595469E+02 0.18856506431E+02 0.21020697558E+02
 0.21296722015E+02 0.20310356873E+02 0.18919055839E+02 0.17489327124E+02 0.16135230357E+02
 0.14889559114E+02 0.13791943504E+02 0.12938298381E+02 0.12461784422E+02 0.12461407000E+02
 0.12937719496E+02 0.13792043333E+02 0.14890313832E+02 0.16135790472E+02 0.17489279905E+02
 0.18918983981E+02 0.20310829227E+02 0.19797238404E+02 0.18553919461E+02 0.15307653946E+02
 0.10926722428E+02 0.71268572456E+01 0.56207416837E+01 0.71264660093E+01 0.10926748141E+02
 0.15308517954E+02 0.18555001124E+02 0.19797652873E+02 0.19241224108E+02 0.17772308568E+02
 0.16135536959E+02 0.14578046040E+02 0.13196831754E+02 0.12031249126E+02 0.11121396399E+02
 0.10530319887E+02 0.10323689703E+02 0.10530140231E+02 0.11121301536E+02 0.12031362607E+02
 0.13196987962E+02 0.14578148034E+02 0.16135790472E+02 0.17772828062E+02 0.19241578286E+02
 0.17823058571E+02 0.15823398167E+02 0.12193574106E+02 0.82192932924E+01 0.56207416837E+01
 0.56205174865E+01 0.82190753489E+01 0.12194136940E+02 0.15824776422E+02 0.17824341479E+02
 0.17886353759E+02 0.16603232237E+02 0.14889744431E+02 0.13196935486E+02 0.11685773450E+02
 0.10425723338E+02 0.94439983913E+01 0.87628202500E+01 0.84108646632E+01 0.84108680238E+01
 0.87628759773E+01 0.94440762616E+01 0.10425637481E+02 0.11685548469E+02 0.13196987962E+02
 0.14890313832E+02 0.16603791001E+02 0.17886047985E+02 0.16097090529E+02 0.14018793189E+02
 0.10952220260E+02 0.82190431689E+01 0.71264660093E+01 0.82190753489E+01 0.10952569837E+02
 0.14019593660E+02 0.16098041865E+02 0.16522603857E+02 0.15495379818E+02 0.13791938824E+02
 0.12031328008E+02 0.10425754593E+02 0.90756602603E+01 0.80170732500E+01 0.72566903380E+01
 0.67967345412E+01 0.66423934210E+01 0.67967638305E+01 0.72567090876E+01 0.80170166646E+01
 0.90755179664E+01 0.10425637481E+02 0.12031362607E+02 0.13792043333E+02 0.15495235338E+02
 0.16521971406E+02 0.15408331975E+02 0.14019119979E+02 0.12193597382E+02 0.10926503767E+02
 0.10926748141E+02 0.12194136940E+02 0.14019593660E+02 0.15408616054E+02 0.15646655526E+02
 0.14653068641E+02 0.12938141904E+02 0.11121419931E+02 0.94439876806E+01 0.80170593556E+01
 0.68860247954E+01 0.60544644303E+01 0.55098417081E+01 0.52404318490E+01 0.52405895649E+01
 0.55100657428E+01 0.60544183842E+01 0.68858183277E+01 0.80170166646E+01 0.94440762616E+01
 0.11121301536E+02 0.12937719496E+02 0.14652614070E+02 0.15646362216E+02 0.16097456452E+02
 0.15823981945E+02 0.15307913924E+02 0.15063595469E+02 0.15308517954E+02 0.15824776422E+02
 0.16098041865E+02 0.15646655526E+02 0.14333239877E+02 0.12461473570E+02 0.10530134490E+02
 0.87628185157E+01 0.72566453148E+01 0.60543423764E+01 0.51564541964E+01 0.45414784324E+01
 0.41842828951E+01 0.40672938836E+01 0.41844309194E+01 0.45416709454E+01 0.51565918244E+01
 0.60544183842E+01 0.72567090876E+01 0.87628759773E+01 0.10530140231E+02 0.12461407000E+02
 0.14333099775E+02 0.15646357095E+02 0.17823342197E+02 0.18554088891E+02 0.18856136582E+02
 0.18856506431E+02 0.18555001124E+02 0.17824341479E+02 0.16522603857E+02 0.14653068641E+02
 0.12461473570E+02 0.10323335481E+02 0.84107228275E+01 0.67967119522E+01 0.55098391666E+01
 0.45412899346E+01 0.38605490286E+01 0.34316505806E+01 0.32251560635E+01 0.32250784370E+01
 0.34316051669E+01 0.38607778376E+01 0.45416709454E+01 0.55100657428E+01 0.67967638305E+01
 0.84108680238E+01 0.10323689703E+02 0.12461784422E+02 0.14652970509E+02 0.16521956715E+02
 0.19796980942E+02 0.21020178784E+02 0.21440429210E+02 0.21020697558E+02 0.19797652873E+02
 0.17886353759E+02 0.15495379818E+02 0.12938141904E+02 0.10530134490E+02 0.84107228275E+01
 0.66422797280E+01 0.52404943817E+01 0.41843654124E+01 0.34315677026E+01 0.29350033451E+01
 0.26546739247E+01 0.25642891411E+01 0.26546925208E+01 0.29350296851E+01 0.34316051669E+01
 0.41844309194E+01 0.52405895649E+01 0.66423934210E+01 0.84108646632E+01 0.10530319887E+02
 0.12938298381E+02 0.15495318137E+02 0.17885926574E+02 0.21296555029E+02 0.22423960289E+02
 0.22424048017E+02 0.21296722015E+02 0.19241224108E+02 0.16603232237E+02 0.13791938824E+02
 0.11121419931E+02 0.87628185157E+01 0.67967119522E+01 0.52404943817E+01 0.40674955256E+01
 0.32253064765E+01 0.26547857471E+01 0.23046261238E+01 0.21387611083E+01 0.21388077600E+01
 0.23046750746E+01 0.26546925208E+01 0.32250784370E+01 0.40672938836E+01 0.52404318490E+01
 0.67967345412E+01 0.87628202500E+01 0.11121396399E+02 0.13791943504E+02 0.16603233656E+02
 0.19241132317E+02 0.22073292961E+02 0.22706275851E+02 0.22073508544E+02 0.20310356873E+02
 0.17772308568E+02 0.14889744431E+02 0.12031328008E+02 0.94439876806E+01 0.72566453148E+01
 0.55098391666E+01 0.41843654124E+01 0.32253064765E+01 0.25644616521E+01 0.21389593553E+01
 0.19019992616E+01 0.18259758538E+01 0.19019082154E+01 0.21388077600E+01 0.25642891411E+01
 0.32251560635E+01 0.41842828951E+01 0.55098417081E+01 0.72566903380E+01 0.94439983913E+01
 0.12031249126E+02 0.14889559114E+02 0.17772027734E+02 0.20310043815E+02 0.22364844024E+02
 0.22365072153E+02 0.21131237517E+02 0.18919055839E+02 0.16135536959E+02 0.13196935486E+02
 0.10425754593E+02 0.80170593556E+01 0.60543423764E+01 0.45412899346E+01 0.34315677026E+01
 0.26547857471E+01 0.21389593553E+01 0.18261112758E+01 0.16785827479E+01 0.16785434563E+01
 0.18259758538E+01 0.21387611083E+01 0.26546739247E+01 0.34316505806E+01 0.45414784324E+01
 0.60544644303E+01 0.80170732500E+01 0.10425723338E+02 0.13196831754E+02 0.16135230357E+02
 0.18918525197E+02 0.21130700625E+02 0.22435054433E+02 0.21802953062E+02 0.20039656181E+02
 0.17489327124E+02 0.14578046040E+02 0.11685773450E+02 0.90756602603E+01 0.68860247954E+01
 0.51564541964E+01 0.38605490286E+01 0.29350033451E+01 0.23046261238E+01 0.19019992616E+01
 0.16785827479E+01 0.16069796627E+01 0.16785827479E+01 0.19019992616E+01 0.23046261238E+01
 0.29350033451E+01 0.38605490286E+01 0.51564541964E+01 0.68860247954E+01 0.90756602603E+01
 0.11685773450E+02 0.14578046040E+02 0.17489327124E+02 0.20039656181E+02 0.21802953062E+02
 0.22364844024E+02 0.21130700625E+02 0.18918525197E+02 0.16135230357E+02 0.13196831754E+02
 0.10425723338E+02 0.80170732500E+01 0.60544644303E+01 0.45414784324E+01 0.34316505806E+01
 0.26546739247E+01 0.21387611083E+01 0.18259758538E+01 0.16785434563E+01 0.16785827479E+01
 0.18261112758E+01 0.21389593553E+01 0.26547857471E+01 0.34315677026E+01 0.45412899346E+01
 0.60543423764E+01 0.80170593556E+01 0.10425754593E+02 0.13196935486E+02 0.16135536959E+02
 0.18919055839E+02 0.21131237517E+02 0.22365072153E+02 0.22073292961E+02 0.20310043815E+02
 0.17772027734E+02 0.14889559114E+02 0.12031249126E+02 0.94439983913E+01 0.72566903380E+01
 0.55098417081E+01 0.41842828951E+01 0.32251560635E+01 0.25642891411E+01 0.21388077600E+01
 0.19019082154E+01 0.18259758538E+01 0.19019992616E+01 0.21389593553E+01 0.25644616521E+01
 0.32253064765E+01 0.41843654124E+01 0.55098391666E+01 0.72566453148E+01 0.94439876806E+01
 0.12031328008E+02 0.14889744431E+02 0.17772308568E+02 0.20310356873E+02 0.22073508544E+02
 0.22706275851E+02 0.21296555029E+02 0.19241132317E+02 0.16603233656E+02 0.13791943504E+02
 0.11121396399E+02 0.87628202500E+01 0.67967345412E+01 0.52404318490E+01 0.40672938836E+01
 0.32250784370E+01 0.26546925208E+01 0.23046750746E+01 0.21388077600E+01 0.21387611083E+01
 0.23046261238E+01 0.26547857471E+01 0.32253064765E+01 0.40674955256E+01 0.52404943817E+01
 0.67967119522E+01 0.87628185157E+01 0.11121419931E+02 0.13791938824E+02 0.16603232237E+02
 0.19241224108E+02 0.21296722015E+02 0.22424048017E+02 0.22423960289E+02 0.19796980942E+02
 0.17885926574E+02 0.15495318137E+02 0.12938298381E+02 0.10530319887E+02 0.84108646632E+01
 0.66423934210E+01 0.52405895649E+01 0.41844309194E+01 0.34316051669E+01 0.29350296851E+01
 0.26546925208E+01 0.25642891411E+01 0.26546739247E+01 0.29350033451E+01 0.34315677026E+01
 0.41843654124E+01 0.52404943817E+01 0.66422797280E+01 0.84107228275E+01 0.10530134490E+02
 0.12938141904E+02 0.15495379818E+02 0.17886353759E+02 0.19797652873E+02 0.21020697558E+02
 0.21440429210E+02 0.21020178784E+02 0.17823342197E+02 0.16521956715E+02 0.14652970509E+02
 0.12461784422E+02 0.10323689703E+02 0.84108680238E+01 0.67967638305E+01 0.55100657428E+01
 0.45416709454E+01 0.38607778376E+01 0.34316051669E+01 0.32250784370E+01 0.32251560635E+01
 0.34316505806E+01 0.38605490286E+01 0.45412899346E+01 0.55098391666E+01 0.67967119522E+01
 0.84107228275E+01 0.10323335481E+02 0.12461473570E+02 0.14653068641E+02 0.16522603857E+02
 0.17824341479E+02 0.18555001124E+02 0.18856506431E+02 0.18856136582E+02 0.18554088891E+02
 0.16097456452E+02 0.15646357095E+02 0.14333099775E+02 0.12461407000E+02 0.10530140231E+02
 0.87628759773E+01 0.72567090876E+01 0.60544183842E+01 0.51565918244E+01 0.45416709454E+01
 0.41844309194E+01 0.40672938836E+01 0.41842828951E+01 0.45414784324E+01 0.51564541964E+01
 0.60543423764E+01 0.72566453148E+01 0.87628185157E+01 0.10530134490E+02 0.12461473570E+02
 0.14333239877E+02 0.15646655526E+02 0.16098041865E+02 0.15824776422E+02 0.15308517954E+02
 0.15063595469E+02 0.15307913924E+02 0.15823981945E+02 0.15408331975E+02 0.15646362216E+02
 0.14652614070E+02 0.12937719496E+02 0.11121301536E+02 0.94440762616E+01 0.80170166646E+01
 0.68858183277E+01 0.60544183842E+01 0.55100657428E+01 0.52405895649E+01 0.52404318490E+01
 0.55098417081E+01 0.60544644303E+01 0.68860247954E+01 0.80170593556E+01 0.94439876806E+01
 0.11121419931E+02 0.12938141904E+02 0.14653068641E+02 0.15646655526E+02 0.15408616054E+02
 0.14019593660E+02 0.12194136940E+02 0.10926748141E+02 0.10926503767E+02 0.12193597382E+02
 0.14019119979E+02 0.16097090529E+02 0.16521971406E+02 0.15495235338E+02 0.13792043333E+02
 0.12031362607E+02 0.10425637481E+02 0.90755179664E+01 0.80170166646E+01 0.72567090876E+01
 0.67967638305E+01 0.66423934210E+01 0.67967345412E+01 0.72566903380E+01 0.80170732500E+01
 0.90756602603E+01 0.10425754593E+02 0.12031328008E+02 0.13791938824E+02 0.15495379818E+02
 0.16522603857E+02 0.16098041865E+02 0.14019593660E+02 0.10952569837E+02 0.82190753489E+01
 0.71264660093E+01 0.82190431689E+01 0.10952220260E+02 0.14018793189E+02 0.17823058571E+02
 0.17886047985E+02 0.16603791001E+02 0.14890313832E+02 0.13196987962E+02 0.11685548469E+02
 0.10425637481E+02 0.94440762616E+01 0.87628759773E+01 0.84108680238E+01 0.84108646632E+01
 0.87628202500E+01 0.94439983913E+01 0.10425723338E+02 0.11685773450E+02 0.13196935486E+02
 0.14889744431E+02 0.16603232237E+02 0.17886353759E+02 0.17824341479E+02 0.15824776422E+02
 0.12194136940E+02 0.82190753489E+01 0.56205174865E+01 0.56207416837E+01 0.82192932924E+01
 0.12193574106E+02 0.15823398167E+02 0.19797238404E+02 0.19241578286E+02 0.17772828062E+02
 0.16135790472E+02 0.14578148034E+02 0.13196987962E+02 0.12031362607E+02 0.11121301536E+02
 0.10530140231E+02 0.10323689703E+02 0.10530319887E+02 0.11121396399E+02 0.12031249126E+02
 0.13196831754E+02 0.14578046040E+02 0.16135536959E+02 0.17772308568E+02 0.19241224108E+02
 0.19797652873E+02 0.18555001124E+02 0.15308517954E+02 0.10926748141E+02 0.71264660093E+01
 0.56207416837E+01 0.71268572456E+01 0.10926722428E+02 0.15307653946E+02 0.18553919461E+02
 0.21297284689E+02 0.20310829227E+02 0.18918983981E+02 0.17489279905E+02 0.16135790472E+02
 0.14890313832E+02 0.13792043333E+02 0.12937719496E+02 0.12461407000E+02 0.12461784422E+02
 0.12938298381E+02 0.13791943504E+02 0.14889559114E+02 0.16135230357E+02 0.17489327124E+02
 0.18919055839E+02 0.20310356873E+02 0.21296722015E+02 0.21020697558E+02 0.18856506431E+02
 0.15063595469E+02 0.10926503767E+02 0.82190431689E+01 0.82192932924E+01 0.10926722428E+02
 0.15063098017E+02 0.18855680462E+02 0.21020509948E+02 0.22073878490E+02 0.21131412426E+02
 0.20039761341E+02 0.18918983981E+02 0.17772828062E+02 0.16603791001E+02 0.15495235338E+02
 0.14652614070E+02 0.14333099775E+02 0.14652970509E+02 0.15495318137E+02 0.16603233656E+02
 0.17772027734E+02 0.18918525197E+02 0.20039656181E+02 0.21131237517E+02 0.22073508544E+02
 0.22424048017E+02 0.21440429210E+02 0.18856136582E+02 0.15307913924E+02 0.12193597382E+02
 0.10952220260E+02 0.12193574106E+02 0.15307653946E+02 0.18855680462E+02 0.21440179231E+02
 0.22424244707E+02 0.22364801156E+02 0.21803130335E+02 0.21131412426E+02 0.20310829227E+02
 0.19241578286E+02 0.17886047985E+02 0.16521971406E+02 0.15646362216E+02 0.15646357095E+02
 0.16521956715E+02 0.17885926574E+02 0.19241132317E+02 0.20310043815E+02 0.21130700625E+02
 0.21802953062E+02 0.22365072153E+02 0.22706275851E+02 0.22423960289E+02 0.21020178784E+02
 0.18554088891E+02 0.15823981945E+02 0.14019119979E+02 0.14018793189E+02 0.15823398167E+02
 0.18553919461E+02 0.21020509948E+02 0.22424244707E+02 0.22706128909E+02 0.22364469022E+02
 0.22705015446E+02 0.22423481604E+02 0.21021129896E+02 0.18555479812E+02 0.15824546976E+02
 0.14018965614E+02 0.14019021692E+02 0.15824357230E+02 0.18554704885E+02 0.21020388198E+02
 0.22423727913E+02 0.22706078595E+02 0.22365081056E+02 0.21802937263E+02 0.21130643940E+02
 0.20310232915E+02 0.19241541933E+02 0.17886085810E+02 0.16521684321E+02 0.15646156139E+02
 0.15646665533E+02 0.16522307997E+02 0.17885519281E+02 0.19240132496E+02 0.20309512678E+02
 0.21131094729E+02 0.21803371876E+02 0.22705015446E+02 0.23026632002E+02 0.21910674679E+02
 0.19089087276E+02 0.15252336762E+02 0.11897534677E+02 0.10562380422E+02 0.11897820252E+02
 0.15252086788E+02 0.19088071276E+02 0.21909890802E+02 0.23027043899E+02 0.22706125105E+02
 0.21733831713E+02 0.20606244844E+02 0.19449950105E+02 0.18266163440E+02 0.17053266290E+02
 0.15890866118E+02 0.15001020232E+02 0.14662607131E+02 0.15001339624E+02 0.15890723752E+02
 0.17052558593E+02 0.18265840792E+02 0.19450535199E+02 0.20606854834E+02 0.21733395698E+02
 0.22423481604E+02 0.21910674679E+02 0.19244888219E+02 0.14758278865E+02 0.99321488955E+01
 0.67914772031E+01 0.67917396726E+01 0.99323801575E+01 0.14757656060E+02 0.19243614204E+02
 0.21909832401E+02 0.22423664715E+02 0.21450445046E+02 0.19974107934E+02 0.18456097189E+02
 0.17018775719E+02 0.15692596847E+02 0.14516797067E+02 0.13596237402E+02 0.13079684973E+02
 0.13079562625E+02 0.13595904793E+02 0.14516459567E+02 0.15692621096E+02 0.17019268269E+02
 0.18456573880E+02 0.19973962560E+02 0.21449821073E+02 0.21021129896E+02 0.19089087276E+02
 0.14758278865E+02 0.91375420924E+01 0.43375703600E+01 0.24469811107E+01 0.43382046624E+01
 0.91376334181E+01 0.14757105291E+02 0.19087398287E+02 0.21020219688E+02 0.20724303410E+02
 0.19203999473E+02 0.17432995152E+02 0.15742767609E+02 0.14240625598E+02 0.12967035920E+02
 0.11966058684E+02 0.11311579655E+02 0.11081946910E+02 0.11311351773E+02 0.11965725361E+02
 0.12966890764E+02 0.14240889246E+02 0.15743195462E+02 0.17433024720E+02 0.19203536616E+02
 0.20724119205E+02 0.18555479812E+02 0.15252336762E+02 0.99321488955E+01 0.43375703600E+01
 0.73986266758E+00 0.74025426945E+00 0.43381468337E+01 0.99318787996E+01 0.15251066779E+02
 0.18554129570E+02 0.19332322625E+02 0.18227823997E+02 0.16392014929E+02 0.14537150603E+02
 0.12870508277E+02 0.11474144654E+02 0.10379791733E+02 0.96154318390E+01 0.92184341616E+01
 0.92184131094E+01 0.96153377890E+01 0.10379664003E+02 0.11474163745E+02 0.12870707803E+02
 0.14537228079E+02 0.16391749743E+02 0.18227606097E+02 0.19332856911E+02 0.15824546976E+02
 0.11897534677E+02 0.67914772031E+01 0.24469811107E+01 0.74025426945E+00 0.24471831732E+01
 0.67915550566E+01 0.11897229537E+02 0.15823947988E+02 0.17498662974E+02 0.17026375599E+02
 0.15344246931E+02 0.13436448077E+02 0.11663267675E+02 0.10157418515E+02 0.89684008753E+01
 0.81087441463E+01 0.75856197772E+01 0.74093989891E+01 0.75856237597E+01 0.81087938284E+01
 0.89684663564E+01 0.10157389813E+02 0.11663098199E+02 0.13436251184E+02 0.15344225899E+02
 0.17026672951E+02 0.17499238476E+02 0.14018965614E+02 0.10562380422E+02 0.67917396726E+01
 0.43382046624E+01 0.43381468337E+01 0.67915550566E+01 0.10562095515E+02 0.14018690554E+02
 0.15892966407E+02 0.15830720946E+02 0.14377743857E+02 0.12478668001E+02 0.10653768309E+02
 0.90696187646E+01 0.77987435912E+01 0.68565403535E+01 0.62353679523E+01 0.59265359772E+01
 0.59266203748E+01 0.62355355958E+01 0.68566059439E+01 0.77985922339E+01 0.90693250132E+01
 0.10653517291E+02 0.12478561507E+02 0.14377745792E+02 0.15830790290E+02 0.15893135231E+02
 0.14019021692E+02 0.11897820252E+02 0.99323801575E+01 0.91376334181E+01 0.99318787996E+01
 0.11897229537E+02 0.14018690554E+02 0.15251152239E+02 0.15065431792E+02 0.13659971352E+02
 0.11744111898E+02 0.98753809251E+01 0.82304417005E+01 0.68913429671E+01 0.58788382697E+01
 0.51794891419E+01 0.47708564140E+01 0.46365452047E+01 0.47709402922E+01 0.51795871944E+01
 0.58788677483E+01 0.68912471072E+01 0.82302138849E+01 0.98750970609E+01 0.11743892496E+02
 0.13659863322E+02 0.15065395573E+02 0.15251223751E+02 0.15824357230E+02 0.15252086788E+02
 0.14757656060E+02 0.14757105291E+02 0.15251066779E+02 0.15823947988E+02 0.15892966407E+02
 0.15065431792E+02 0.13389888837E+02 0.11337739651E+02 0.93753616349E+01 0.76547152118E+01
 0.62462242649E+01 0.51677644663E+01 0.44015047604E+01 0.39153198687E+01 0.36801899476E+01
 0.36800846097E+01 0.39152423542E+01 0.44017395725E+01 0.51680907585E+01 0.62462235246E+01
 0.76544684941E+01 0.93753531072E+01 0.11338044635E+02 0.13389969807E+02 0.15064987598E+02
 0.15892568082E+02 0.18554704885E+02 0.19088071276E+02 0.19243614204E+02 0.19087398287E+02
 0.18554129570E+02 0.17498662974E+02 0.15830720946E+02 0.13659971352E+02 0.11337739651E+02
 0.92014055131E+01 0.73593737169E+01 0.58595577213E+01 0.47067485478E+01 0.38739683454E+01
 0.33202689026E+01 0.30063099230E+01 0.29048128485E+01 0.30062529932E+01 0.33203736829E+01
 0.38742140671E+01 0.47068710985E+01 0.58595744613E+01 0.73596471728E+01 0.92019947099E+01
 0.11338105822E+02 0.13659663833E+02 0.15830089943E+02 0.17498508239E+02 0.21020388198E+02
 0.21909890802E+02 0.21909832401E+02 0.21020219688E+02 0.19332322625E+02 0.17026375599E+02
 0.14377743857E+02 0.11744111898E+02 0.93753616349E+01 0.73593737169E+01 0.57302046429E+01
 0.44800267269E+01 0.35701411843E+01 0.29482958789E+01 0.25648988172E+01 0.23829877793E+01
 0.23830203529E+01 0.25649348798E+01 0.29482554958E+01 0.35700805557E+01 0.44800901529E+01
 0.57304263277E+01 0.73596090988E+01 0.93754616677E+01 0.11744104419E+02 0.14377782237E+02
 0.17026542502E+02 0.19332547626E+02 0.22423727913E+02 0.23027043899E+02 0.22423664715E+02
 0.20724303410E+02 0.18227823997E+02 0.15344246931E+02 0.12478668001E+02 0.98753809251E+01
 0.76547152118E+01 0.58595577213E+01 0.44800267269E+01 0.34708852230E+01 0.27700491074E+01
 0.23167800787E+01 0.20639083729E+01 0.19827478301E+01 0.20638077832E+01 0.23166349801E+01
 0.27699494491E+01 0.34708563954E+01 0.44799698243E+01 0.58593794868E+01 0.76545041525E+01
 0.98753421104E+01 0.12478879127E+02 0.15344573375E+02 0.18228092962E+02 0.20724456388E+02
 0.22706078595E+02 0.22706125105E+02 0.21450445046E+02 0.19203999473E+02 0.16392014929E+02
 0.13436448077E+02 0.10653768309E+02 0.82304417005E+01 0.62462242649E+01 0.47067485478E+01
 0.35701411843E+01 0.27700491074E+01 0.22367939720E+01 0.19128909755E+01 0.17601019725E+01
 0.17600280135E+01 0.19127336083E+01 0.22366587505E+01 0.27699538874E+01 0.35700352035E+01
 0.47066280188E+01 0.62461544153E+01 0.82304586647E+01 0.10653815233E+02 0.13436436260E+02
 0.16391913620E+02 0.19203852053E+02 0.21450322543E+02 0.22365081056E+02 0.21733831713E+02
 0.19974107934E+02 0.17432995152E+02 0.14537150603E+02 0.11663267675E+02 0.90696187646E+01
 0.68913429671E+01 0.51677644663E+01 0.38739683454E+01 0.29482958789E+01 0.23167800787E+01
 0.19128909755E+01 0.16886414273E+01 0.16167802530E+01 0.16886297735E+01 0.19127846792E+01
 0.23166071392E+01 0.29482247144E+01 0.38740792143E+01 0.51679194063E+01 0.68913757069E+01
 0.90695542600E+01 0.11663220670E+02 0.14537071354E+02 0.17432693986E+02 0.19973573735E+02
 0.21733384230E+02 0.21802937263E+02 0.20606244844E+02 0.18456097189E+02 0.15742767609E+02
 0.12870508277E+02 0.10157418515E+02 0.77987435912E+01 0.58788382697E+01 0.44015047604E+01
 0.33202689026E+01 0.25648988172E+01 0.20639083729E+01 0.17601019725E+01 0.16167802530E+01
 0.16168288881E+01 0.17601883177E+01 0.20639424733E+01 0.25648835139E+01 0.33202655495E+01
 0.44015149608E+01 0.58788032555E+01 0.77986561105E+01 0.10157357340E+02 0.12870533958E+02
 0.15742840222E+02 0.18456133463E+02 0.20606226185E+02 0.21802918695E+02 0.21130643940E+02
 0.19449950105E+02 0.17018775719E+02 0.14240625598E+02 0.11474144654E+02 0.89684008753E+01
 0.68565403535E+01 0.51794891419E+01 0.39153198687E+01 0.30063099230E+01 0.23829877793E+01
 0.19827478301E+01 0.17600280135E+01 0.16886297735E+01 0.17601883177E+01 0.19830178463E+01
 0.23831990823E+01 0.30062920057E+01 0.39151253981E+01 0.51793509188E+01 0.68565611472E+01
 0.89684420859E+01 0.11474103928E+02 0.14240670522E+02 0.17019149308E+02 0.19450597382E+02
 0.21131162543E+02 0.21733406045E+02 0.20310232915E+02 0.18266163440E+02 0.15692596847E+02
 0.12967035920E+02 0.10379791733E+02 0.81087441463E+01 0.62353679523E+01 0.47708564140E+01
 0.36801899476E+01 0.29048128485E+01 0.23830203529E+01 0.20638077832E+01 0.19127336083E+01
 0.19127846792E+01 0.20639424733E+01 0.23831990823E+01 0.29049928008E+01 0.36803236720E+01
 0.47709087128E+01 0.62353636634E+01 0.81087730801E+01 0.10379926063E+02 0.12967247628E+02
 0.15692783418E+02 0.18266253594E+02 0.20310242707E+02 0.21450470844E+02 0.21450478651E+02
 0.19241541933E+02 0.17053266290E+02 0.14516797067E+02 0.11966058684E+02 0.96154318390E+01
 0.75856197772E+01 0.59265359772E+01 0.46365452047E+01 0.36800846097E+01 0.30062529932E+01
 0.25649348798E+01 0.23166349801E+01 0.22366587505E+01 0.23166071392E+01 0.25648835139E+01
 0.30062920057E+01 0.36803236720E+01 0.46368497696E+01 0.59266329059E+01 0.75855037613E+01
 0.96154367379E+01 0.11966383288E+02 0.14517146166E+02 0.17053164915E+02 0.19240946398E+02
 0.20724114743E+02 0.21249447660E+02 0.20724687250E+02 0.17886085810E+02 0.15890866118E+02
 0.13596237402E+02 0.11311579655E+02 0.92184341616E+01 0.74093989891E+01 0.59266203748E+01
 0.47709402922E+01 0.39152423542E+01 0.33203736829E+01 0.29482554958E+01 0.27699494491E+01
 0.27699538874E+01 0.29482247144E+01 0.33202655495E+01 0.39151253981E+01 0.47709087128E+01
 0.59266329059E+01 0.74093243053E+01 0.92182745644E+01 0.11311524235E+02 0.13596413325E+02
 0.15891125554E+02 0.17886171679E+02 0.19332483026E+02 0.20086557977E+02 0.20086645684E+02
 0.19332597803E+02 0.16521684321E+02 0.15001020232E+02 0.13079684973E+02 0.11081946910E+02
 0.92184131094E+01 0.75856237597E+01 0.62355355958E+01 0.51795871944E+01 0.44017395725E+01
 0.38742140671E+01 0.35700805557E+01 0.34708563954E+01 0.35700352035E+01 0.38740792143E+01
 0.44015149608E+01 0.51793509188E+01 0.62353636634E+01 0.75855037613E+01 0.92182745644E+01
 0.11081776058E+02 0.13079595509E+02 0.15001188301E+02 0.16522182397E+02 0.17498954115E+02
 0.17990504893E+02 0.18132191977E+02 0.17990027443E+02 0.17498291051E+02 0.15646156139E+02
 0.14662607131E+02 0.13079562625E+02 0.11311351773E+02 0.96153377890E+01 0.81087938284E+01
 0.68566059439E+01 0.58788677483E+01 0.51680907585E+01 0.47068710985E+01 0.44800901529E+01
 0.44799698243E+01 0.47066280188E+01 0.51679194063E+01 0.58788032555E+01 0.68565611472E+01
 0.81087730801E+01 0.96154367379E+01 0.11311524235E+02 0.13079595509E+02 0.14662472408E+02
 0.15646218046E+02 0.15892935628E+02 0.15645294396E+02 0.15350436031E+02 0.15350002623E+02
 0.15644404575E+02 0.15892331370E+02 0.15646665533E+02 0.15001339624E+02 0.13595904793E+02
 0.11965725361E+02 0.10379664003E+02 0.89684663564E+01 0.77985922339E+01 0.68912471072E+01
 0.62462235246E+01 0.58595744613E+01 0.57304263277E+01 0.58593794868E+01 0.62461544153E+01
 0.68913757069E+01 0.77986561105E+01 0.89684420859E+01 0.10379926063E+02 0.11966383288E+02
 0.13596413325E+02 0.15001188301E+02 0.15646218046E+02 0.15251319417E+02 0.14087864218E+02
 0.12874012551E+02 0.12362531955E+02 0.12872978313E+02 0.14086835147E+02 0.15251156899E+02
 0.16522307997E+02 0.15890723752E+02 0.14516459567E+02 0.12966890764E+02 0.11474163745E+02
 0.10157389813E+02 0.90693250132E+01 0.82302138849E+01 0.76544684941E+01 0.73596471728E+01
 0.73596090988E+01 0.76545041525E+01 0.82304586647E+01 0.90695542600E+01 0.10157357340E+02
 0.11474103928E+02 0.12967247628E+02 0.14517146166E+02 0.15891125554E+02 0.16522182397E+02
 0.15892935628E+02 0.14087864218E+02 0.11881615493E+02 0.10378382746E+02 0.10377757992E+02
 0.11880370033E+02 0.14087112136E+02 0.15892971064E+02 0.17885519281E+02 0.17052558593E+02
 0.15692621096E+02 0.14240889246E+02 0.12870707803E+02 0.11663098199E+02 0.10653517291E+02
 0.98750970609E+01 0.93753531072E+01 0.92019947099E+01 0.93754616677E+01 0.98753421104E+01
 0.10653815233E+02 0.11663220670E+02 0.12870533958E+02 0.14240670522E+02 0.15692783418E+02
 0.17053164915E+02 0.17886171679E+02 0.17498954115E+02 0.15645294396E+02 0.12874012551E+02
 0.10378382746E+02 0.93751709569E+01 0.10377788794E+02 0.12873364255E+02 0.15644890254E+02
 0.17498537438E+02 0.19240132496E+02 0.18265840792E+02 0.17019268269E+02 0.15743195462E+02
 0.14537228079E+02 0.13436251184E+02 0.12478561507E+02 0.11743892496E+02 0.11338044635E+02
 0.11338105822E+02 0.11744104419E+02 0.12478879127E+02 0.13436436260E+02 0.14537071354E+02
 0.15742840222E+02 0.17019149308E+02 0.18266253594E+02 0.19240946398E+02 0.19332483026E+02
 0.17990504893E+02 0.15350436031E+02 0.12362531955E+02 0.10377757992E+02 0.10377788794E+02
 0.12362553005E+02 0.15350271627E+02 0.17989997850E+02 0.19331668170E+02 0.20309512678E+02
 0.19450535199E+02 0.18456573880E+02 0.17433024720E+02 0.16391749743E+02 0.15344225899E+02
 0.14377745792E+02 0.13659863322E+02 0.13389969807E+02 0.13659663833E+02 0.14377782237E+02
 0.15344573375E+02 0.16391913620E+02 0.17432693986E+02 0.18456133463E+02 0.19450597382E+02
 0.20310242707E+02 0.20724114743E+02 0.20086557977E+02 0.18132191977E+02 0.15350002623E+02
 0.12872978313E+02 0.11880370033E+02 0.12873364255E+02 0.15350271627E+02 0.18131893379E+02
 0.20085690406E+02 0.20723058784E+02 0.21131094729E+02 0.20606854834E+02 0.19973962560E+02
 0.19203536616E+02 0.18227606097E+02 0.17026672951E+02 0.15830790290E+02 0.15065395573E+02
 0.15064987598E+02 0.15830089943E+02 0.17026542502E+02 0.18228092962E+02 0.19203852053E+02
 0.19973573735E+02 0.20606226185E+02 0.21131162543E+02 0.21450470844E+02 0.21249447660E+02
 0.20086645684E+02 0.17990027443E+02 0.15644404575E+02 0.14086835147E+02 0.14087112136E+02
 0.15644890254E+02 0.17989997850E+02 0.20085690406E+02 0.21247952633E+02 0.21449375667E+02
 0.21803371876E+02 0.21733395698E+02 0.21449821073E+02 0.20724119205E+02 0.19332856911E+02
 0.17499238476E+02 0.15893135231E+02 0.15251223751E+02 0.15892568082E+02 0.17498508239E+02
 0.19332547626E+02 0.20724456388E+02 0.21450322543E+02 0.21733384230E+02 0.21802918695E+02
 0.21733406045E+02 0.21450478651E+02 0.20724687250E+02 0.19332597803E+02 0.17498291051E+02
 0.15892331370E+02 0.15251156899E+02 0.15892971064E+02 0.17498537438E+02 0.19331668170E+02
 0.20723058784E+02 0.21449375667E+02 0.21733395698E+02 0.22073053940E+02 0.22423149471E+02
 0.21439354681E+02 0.18855723636E+02 0.15308438594E+02 0.12194388087E+02 0.10952624917E+02
 0.12193811244E+02 0.15308293498E+02 0.18856619660E+02 0.21440700095E+02 0.22424027648E+02
 0.22073404187E+02 0.21131195448E+02 0.20039629658E+02 0.18918495359E+02 0.17772117524E+02
 0.16603497785E+02 0.15495589022E+02 0.14653078816E+02 0.14333158791E+02 0.14652874311E+02
 0.15495639996E+02 0.16603895632E+02 0.17772308352E+02 0.18918069795E+02 0.20038936792E+02
 0.21130762595E+02 0.22423149471E+02 0.21909111109E+02 0.19242968067E+02 0.14757505089E+02
 0.99328005458E+01 0.67923915999E+01 0.67919396571E+01 0.99321798561E+01 0.14757861580E+02
 0.19244273018E+02 0.21910337858E+02 0.22423734022E+02 0.21450362914E+02 0.19974106811E+02
 0.18456069566E+02 0.17018679736E+02 0.15692670824E+02 0.14517149562E+02 0.13596563962E+02
 0.13079703180E+02 0.13079531435E+02 0.13596323282E+02 0.14517247700E+02 0.15693003996E+02
 0.17018731179E+02 0.18455650384E+02 0.19973603987E+02 0.21450027101E+02 0.21439354681E+02
 0.19242968067E+02 0.14503886117E+02 0.84188286712E+01 0.32437280097E+01 0.12077637248E+01