 vasp.5.3.5 31Mar14 (build Feb  5 2015 19:39:53) complex                        
  
 executed on              HPCUofA date 2017.11.14  13:06:55
 running on    1 total cores
 distrk:  each k-point on    1 cores,    1 groups
 distr:  one band on NCORES_PER_BAND=   1 cores,    1 groups


--------------------------------------------------------------------------------------------------------


 INCAR:
 POTCAR:   PAW Si 02Apr1999                       
 POTCAR:   PAW Si 02Apr1999                       
   VRHFIN =Si: s2p2                                                             
   LEXCH  = CA                                                                  
   EATOM  =   103.4338 eV,    7.6022 Ry                                         
                                                                                
   TITEL  = PAW Si 02Apr1999                                                    
   LULTRA =        F    use ultrasoft PP ?                                      
   IUNSCR =        1    unscreen: 0-lin 1-nonlin 2-no                           
   RPACOR =    1.500    partial core radius                                     
   POMASS =   28.085; ZVAL   =    4.000    mass and valenz                      
   RCORE  =    1.900    outmost cutoff radius                                   
   RWIGS  =    2.480; RWIGS  =    1.312    wigner-seitz radius (au A)           
   ENMAX  =  245.704; ENMIN  =  184.278 eV                                      
   ICORE  =        2    local potential                                         
   LCOR   =        T    correct aug charges                                     
   LPAW   =        T    paw PP                                                  
   EAUG   =  322.069                                                            
   DEXC   =    -.006                                                            
   RMAX   =    2.941    core radius for proj-oper                               
   RAUG   =    1.300    factor for augmentation sphere                          
   RDEP   =    1.993    core radius for depl-charge                             
   QCUT   =   -4.250; QGAM   =    8.499    optimization parameters              
                                                                                
   Description                                                                  
     l     E      TYP  RCUT    TYP  RCUT                                        
     0   .000     23  1.900                                                     
     0   .000     23  1.900                                                     
     1   .000     23  1.900                                                     
     1   .000     23  1.900                                                     
     2   .000      7  1.900                                                     
  local pseudopotential read in
  partial core-charges read in
  atomic valenz-charges read in
  non local Contribution for L=           0  read in
    real space projection operators read in
  non local Contribution for L=           0  read in
    real space projection operators read in
  non local Contribution for L=           1  read in
    real space projection operators read in
  non local Contribution for L=           1  read in
    real space projection operators read in
    PAW grid and wavefunctions read in
 
   number of l-projection  operators is LMAX  =           4
   number of lm-projection operators is LMMAX =           8
 
 PAW Si 02Apr1999                       :
 energy of atom  1       EATOM= -103.4338
 kinetic energy error for atom=    0.0062 (will be added to EATOM!!)
 
 
 POSCAR: diamond Si:                             
  positions in direct lattice
  velocities in cartesian coordinates
 exchange correlation table for  LEXCH =        2
   RHO(1)=    0.500       N(1)  =     2000
   RHO(2)=  100.500       N(2)  =     4000
 


--------------------------------------------------------------------------------------------------------


 ion  position               nearest neighbor table
   1  0.875  0.875  0.875-   2 2.34   2 2.34   2 2.34   2 2.34
   2  0.125  0.125  0.125-   1 2.34   1 2.34   1 2.34   1 2.34
 
  LATTYP: Found a face centered cubic cell.
 ALAT       =     5.3990048666
  
  Lattice vectors:
  
 A1 = (   0.0000000000,   2.6995024333,   2.6995024333)
 A2 = (   2.6995024333,   0.0000000000,   2.6995024333)
 A3 = (   2.6995024333,   2.6995024333,   0.0000000000)


Analysis of symmetry for initial positions (statically):
=====================================================================
 Subroutine PRICEL returns:
 Original cell was already a primitive cell.
 

 Routine SETGRP: Setting up the symmetry group for a 
 face centered cubic supercell.


 Subroutine GETGRP returns: Found 48 space group operations
 (whereof 12 operations were pure point group operations)
 out of a pool of 48 trial point group operations.


The static configuration has the point symmetry D_3d.
 The point group associated with its full space group is O_h .


Analysis of symmetry for dynamics (positions and initial velocities):
=====================================================================
 Subroutine PRICEL returns:
 Original cell was already a primitive cell.
 

 Routine SETGRP: Setting up the symmetry group for a 
 face centered cubic supercell.


 Subroutine GETGRP returns: Found 48 space group operations
 (whereof 12 operations were pure point group operations)
 out of a pool of 48 trial point group operations.


The dynamic configuration has the point symmetry D_3d.
 The point group associated with its full space group is O_h .
 
 
 KPOINTS: k-points                                

Automatic generation of k-mesh.
Space group operators:
 irot       det(A)        alpha          n_x          n_y          n_z        tau_x        tau_y        tau_z
    1     1.000000     0.000000     1.000000     0.000000     0.000000     0.000000     0.000000     0.000000
    2    -1.000000     0.000000     1.000000     0.000000     0.000000     0.000000     0.000000     0.000000
    3     1.000000   120.000000    -0.577350    -0.577350    -0.577350     0.000000     0.000000     0.000000
    4    -1.000000   120.000000    -0.577350    -0.577350    -0.577350     0.000000     0.000000     0.000000
    5     1.000000   120.000000     0.577350     0.577350     0.577350     0.000000     0.000000     0.000000
    6    -1.000000   120.000000     0.577350     0.577350     0.577350     0.000000     0.000000     0.000000
    7     1.000000   180.000000     0.000000    -0.707107     0.707107     0.000000     0.000000     0.000000
    8    -1.000000   180.000000     0.000000    -0.707107     0.707107     0.000000     0.000000     0.000000
    9     1.000000   180.000000     0.707107    -0.707107     0.000000     0.000000     0.000000     0.000000
   10    -1.000000   180.000000     0.707107    -0.707107     0.000000     0.000000     0.000000     0.000000
   11     1.000000   180.000000     0.707107     0.000000    -0.707107     0.000000     0.000000     0.000000
   12    -1.000000   180.000000     0.707107     0.000000    -0.707107     0.000000     0.000000     0.000000
   13     1.000000    90.000000     0.000000     0.000000    -1.000000     0.500000     0.000000     0.000000
   14    -1.000000    90.000000     0.000000     0.000000    -1.000000     0.500000     0.000000     0.000000
   15     1.000000   180.000000     0.000000     0.707107     0.707107     0.500000     0.000000     0.000000
   16    -1.000000   180.000000     0.000000     0.707107     0.707107     0.500000     0.000000     0.000000
   17     1.000000    90.000000     0.000000     1.000000     0.000000     0.500000     0.000000     0.000000
   18    -1.000000    90.000000     0.000000     1.000000     0.000000     0.500000     0.000000     0.000000
   19     1.000000   180.000000     0.000000     0.000000     1.000000     0.000000     0.000000     0.500000
   20    -1.000000   180.000000     0.000000     0.000000     1.000000     0.000000     0.000000     0.500000
   21     1.000000   120.000000    -0.577350     0.577350     0.577350     0.000000     0.000000     0.500000
   22    -1.000000   120.000000    -0.577350     0.577350     0.577350     0.000000     0.000000     0.500000
   23     1.000000   120.000000    -0.577350     0.577350    -0.577350     0.000000     0.000000     0.500000
   24    -1.000000   120.000000    -0.577350     0.577350    -0.577350     0.000000     0.000000     0.500000
   25     1.000000    90.000000     0.000000     0.000000     1.000000     0.000000     0.500000     0.000000
   26    -1.000000    90.000000     0.000000     0.000000     1.000000     0.000000     0.500000     0.000000
   27     1.000000    90.000000    -1.000000     0.000000     0.000000     0.000000     0.500000     0.000000
   28    -1.000000    90.000000    -1.000000     0.000000     0.000000     0.000000     0.500000     0.000000
   29     1.000000   180.000000     0.707107     0.000000     0.707107     0.000000     0.500000     0.000000
   30    -1.000000   180.000000     0.707107     0.000000     0.707107     0.000000     0.500000     0.000000
   31     1.000000   120.000000     0.577350    -0.577350     0.577350     0.500000     0.000000     0.000000
   32    -1.000000   120.000000     0.577350    -0.577350     0.577350     0.500000     0.000000     0.000000
   33     1.000000   120.000000    -0.577350    -0.577350     0.577350     0.500000     0.000000     0.000000
   34    -1.000000   120.000000    -0.577350    -0.577350     0.577350     0.500000     0.000000     0.000000
   35     1.000000   180.000000     1.000000     0.000000     0.000000     0.500000     0.000000     0.000000
   36    -1.000000   180.000000     1.000000     0.000000     0.000000     0.500000     0.000000     0.000000
   37     1.000000    90.000000     0.000000    -1.000000     0.000000     0.000000     0.000000     0.500000
   38    -1.000000    90.000000     0.000000    -1.000000     0.000000     0.000000     0.000000     0.500000
   39     1.000000   180.000000     0.707107     0.707107     0.000000     0.000000     0.000000     0.500000
   40    -1.000000   180.000000     0.707107     0.707107     0.000000     0.000000     0.000000     0.500000
   41     1.000000    90.000000     1.000000     0.000000     0.000000     0.000000     0.000000     0.500000
   42    -1.000000    90.000000     1.000000     0.000000     0.000000     0.000000     0.000000     0.500000
   43     1.000000   120.000000     0.577350    -0.577350    -0.577350     0.000000     0.500000     0.000000
   44    -1.000000   120.000000     0.577350    -0.577350    -0.577350     0.000000     0.500000     0.000000
   45     1.000000   180.000000     0.000000     1.000000     0.000000     0.000000     0.500000     0.000000
   46    -1.000000   180.000000     0.000000     1.000000     0.000000     0.000000     0.500000     0.000000
   47     1.000000   120.000000     0.577350     0.577350    -0.577350     0.000000     0.500000     0.000000
   48    -1.000000   120.000000     0.577350     0.577350    -0.577350     0.000000     0.500000     0.000000
 
 Subroutine IBZKPT returns following result:
 ===========================================
 
 Found     56 irreducible k-points:
 
 Following reciprocal coordinates:
            Coordinates               Weight
  0.000000  0.000000  0.000000      1.000000
  0.090909  0.000000  0.000000      8.000000
  0.181818  0.000000  0.000000      8.000000
  0.272727  0.000000  0.000000      8.000000
  0.363636  0.000000  0.000000      8.000000
  0.454545  0.000000  0.000000      8.000000
  0.090909  0.090909  0.000000      6.000000
  0.181818  0.090909  0.000000     24.000000
  0.272727  0.090909  0.000000     24.000000
  0.363636  0.090909  0.000000     24.000000
  0.454545  0.090909  0.000000     24.000000
 -0.454545  0.090909  0.000000     24.000000
 -0.363636  0.090909  0.000000     24.000000
 -0.272727  0.090909  0.000000     24.000000
 -0.181818  0.090909  0.000000     24.000000
 -0.090909  0.090909  0.000000     12.000000
  0.181818  0.181818  0.000000      6.000000
  0.272727  0.181818  0.000000     24.000000
  0.363636  0.181818  0.000000     24.000000
  0.454545  0.181818  0.000000     24.000000
 -0.454545  0.181818  0.000000     24.000000
 -0.363636  0.181818  0.000000     24.000000
 -0.272727  0.181818  0.000000     24.000000
 -0.181818  0.181818  0.000000     12.000000
  0.272727  0.272727  0.000000      6.000000
  0.363636  0.272727  0.000000     24.000000
  0.454545  0.272727  0.000000     24.000000
 -0.454545  0.272727  0.000000     24.000000
 -0.363636  0.272727  0.000000     24.000000
 -0.272727  0.272727  0.000000     12.000000
  0.363636  0.363636  0.000000      6.000000
  0.454545  0.363636  0.000000     24.000000
 -0.454545  0.363636  0.000000     24.000000
 -0.363636  0.363636  0.000000     12.000000
  0.454545  0.454545  0.000000      6.000000
 -0.454545  0.454545  0.000000     12.000000
  0.272727  0.181818  0.090909     24.000000
  0.363636  0.181818  0.090909     48.000000
  0.454545  0.181818  0.090909     48.000000
 -0.454545  0.181818  0.090909     48.000000
  0.363636  0.272727  0.090909     24.000000
  0.454545  0.272727  0.090909     48.000000
 -0.454545  0.272727  0.090909     48.000000
 -0.363636  0.272727  0.090909     48.000000
 -0.272727  0.272727  0.090909     48.000000
 -0.181818  0.272727  0.090909     24.000000
  0.454545  0.363636  0.090909     24.000000
 -0.454545  0.363636  0.090909     48.000000
 -0.363636  0.363636  0.090909     48.000000
 -0.272727  0.363636  0.090909     24.000000
 -0.454545  0.454545  0.090909     24.000000
 -0.363636  0.454545  0.090909     24.000000
 -0.454545  0.363636  0.181818     24.000000
 -0.363636  0.363636  0.181818     48.000000
 -0.363636  0.454545  0.181818     24.000000
 -0.272727  0.454545  0.181818     24.000000
 
 Following cartesian coordinates:
            Coordinates               Weight
  0.000000  0.000000  0.000000      1.000000
 -0.092610  0.092610  0.092610      8.000000
 -0.185219  0.185219  0.185219      8.000000
 -0.277829  0.277829  0.277829      8.000000
 -0.370439  0.370439  0.370439      8.000000
 -0.463048  0.463048  0.463048      8.000000
  0.000000  0.000000  0.185219      6.000000
 -0.092610  0.092610  0.277829     24.000000
 -0.185219  0.185219  0.370439     24.000000
 -0.277829  0.277829  0.463048     24.000000
 -0.370439  0.370439  0.555658     24.000000
  0.555658 -0.555658 -0.370439     24.000000
  0.463048 -0.463048 -0.277829     24.000000
  0.370439 -0.370439 -0.185219     24.000000
  0.277829 -0.277829 -0.092610     24.000000
  0.185219 -0.185219  0.000000     12.000000
  0.000000  0.000000  0.370439      6.000000
 -0.092610  0.092610  0.463048     24.000000
 -0.185219  0.185219  0.555658     24.000000
 -0.277829  0.277829  0.648268     24.000000
  0.648268 -0.648268 -0.277829     24.000000
  0.555658 -0.555658 -0.185219     24.000000
  0.463048 -0.463048 -0.092610     24.000000
  0.370439 -0.370439  0.000000     12.000000
  0.000000  0.000000  0.555658      6.000000
 -0.092610  0.092610  0.648268     24.000000
 -0.185219  0.185219  0.740877     24.000000
  0.740877 -0.740877 -0.185219     24.000000
  0.648268 -0.648268 -0.092610     24.000000
  0.555658 -0.555658  0.000000     12.000000
  0.000000  0.000000  0.740877      6.000000
 -0.092610  0.092610  0.833487     24.000000
  0.833487 -0.833487 -0.092610     24.000000
  0.740877 -0.740877  0.000000     12.000000
  0.000000  0.000000  0.926097      6.000000
  0.926097 -0.926097  0.000000     12.000000
  0.000000  0.185219  0.370439     24.000000
 -0.092610  0.277829  0.463048     48.000000
 -0.185219  0.370439  0.555658     48.000000
  0.740877 -0.555658 -0.370439     48.000000
 -0.000000  0.185219  0.555658     24.000000
 -0.092610  0.277829  0.648268     48.000000
  0.833487 -0.648268 -0.277829     48.000000
  0.740877 -0.555658 -0.185219     48.000000
  0.648268 -0.463048 -0.092610     48.000000
  0.555658 -0.370439 -0.000000     24.000000
 -0.000000  0.185219  0.740877     24.000000
  0.926097 -0.740877 -0.185219     48.000000
  0.833487 -0.648268 -0.092610     48.000000
  0.740877 -0.555658 -0.000000     24.000000
  1.018706 -0.833487 -0.092610     24.000000
  0.926097 -0.740877  0.000000     24.000000
  1.018706 -0.648268 -0.277829     24.000000
  0.926097 -0.555658 -0.185219     48.000000
  1.018706 -0.648268 -0.092610     24.000000
  0.926097 -0.555658  0.000000     24.000000
 


--------------------------------------------------------------------------------------------------------




 Dimension of arrays:
   k-points           NKPTS =     56   k-points in BZ     NKDIM =     56   number of bands    NBANDS=      8
   number of dos      NEDOS =    301   number of ions     NIONS =      2
   non local maximal  LDIM  =      4   non local SUM 2l+1 LMDIM =      8
   total plane-waves  NPLWV =   2744
   max r-space proj   IRMAX =      1   max aug-charges    IRDMAX=   2531
   dimension x,y,z NGX =    14 NGY =   14 NGZ =   14
   dimension x,y,z NGXF=    28 NGYF=   28 NGZF=   28
   support grid    NGXF=    28 NGYF=   28 NGZF=   28
   ions per type =               2
 NGX,Y,Z   is equivalent  to a cutoff of   6.10,  6.10,  6.10 a.u.
 NGXF,Y,Z  is equivalent  to a cutoff of  12.19, 12.19, 12.19 a.u.


 I would recommend the setting:
   dimension x,y,z NGX =    14 NGY =   14 NGZ =   14
 SYSTEM =  diamond Si                              
 POSCAR =  diamond Si:                             

 Startparameter for this run:
   NWRITE =      2    write-flag & timer
   PREC   = normal    normal or accurate (medium, high low for compatibility)
   ISTART =      0    job   : 0-new  1-cont  2-samecut
   ICHARG =      2    charge: 1-file 2-atom 10-const
   ISPIN  =      1    spin polarized calculation?
   LNONCOLLINEAR =      F non collinear calculations
   LSORBIT =      F    spin-orbit coupling
   INIWAV =      1    electr: 0-lowe 1-rand  2-diag
   LASPH  =      F    aspherical Exc in radial PAW
   METAGGA=      F    non-selfconsistent MetaGGA calc.

 Electronic Relaxation 1
   ENCUT  =  240.0 eV  17.64 Ry    4.20 a.u.   4.82  4.82  4.82*2*pi/ulx,y,z
   ENINI  =  240.0     initial cutoff
   ENAUG  =  322.1 eV  augmentation charge cutoff
   NELM   =     60;   NELMIN=  2; NELMDL= -5     # of ELM steps 
   EDIFF  = 0.1E-03   stopping-criterion for ELM
   LREAL  =      F    real-space projection
   NLSPLINE    = F    spline interpolate recip. space projectors
   LCOMPAT=      F    compatible to vasp.4.4
   GGA_COMPAT  = T    GGA compatible to vasp.4.4-vasp.4.6
   LMAXPAW     = -100 max onsite density
   LMAXMIX     =    2 max onsite mixed and CHGCAR
   VOSKOWN=      0    Vosko Wilk Nusair interpolation
   ROPT   =    0.00000
 Ionic relaxation
   EDIFFG = 0.1E-02   stopping-criterion for IOM
   NSW    =      0    number of steps for IOM
   NBLOCK =      1;   KBLOCK =      1    inner block; outer block 
   IBRION =     -1    ionic relax: 0-MD 1-quasi-New 2-CG
   NFREE  =      0    steps in history (QN), initial steepest desc. (CG)
   ISIF   =      2    stress and relaxation
   IWAVPR =     10    prediction:  0-non 1-charg 2-wave 3-comb
   ISYM   =      2    0-nonsym 1-usesym 2-fastsym
   LCORR  =      T    Harris-Foulkes like correction to forces

   POTIM  = 0.5000    time-step for ionic-motion
   TEIN   =    0.0    initial temperature
   TEBEG  =    0.0;   TEEND  =   0.0 temperature during run
   SMASS  =  -3.00    Nose mass-parameter (am)
   estimated Nose-frequenzy (Omega)   =  0.10E-29 period in steps =****** mass=  -0.333E-27a.u.
   SCALEE = 1.0000    scale energy and forces
   NPACO  =    256;   APACO  = 16.0  distance and # of slots for P.C.
   PSTRESS=    0.0 pullay stress

  Mass of Ions in am
   POMASS =  28.09
  Ionic Valenz
   ZVAL   =   4.00
  Atomic Wigner-Seitz radii
   RWIGS  =  -1.00
  virtual crystal weights 
   VCA    =   1.00
   NELECT =       8.0000    total number of electrons
   NUPDOWN=      -1.0000    fix difference up-down

 DOS related values:
   EMIN   =  10.00;   EMAX   =-10.00  energy-range for DOS
   EFERMI =   0.00
   ISMEAR =     0;   SIGMA  =   0.10  broadening in eV -4-tet -1-fermi 0-gaus

 Electronic relaxation 2 (details)
   IALGO  =     38    algorithm
   LDIAG  =      T    sub-space diagonalisation (order eigenvalues)
   LSUBROT=      F    optimize rotation matrix (better conditioning)
   TURBO    =      0    0=normal 1=particle mesh
   IRESTART =      0    0=no restart 2=restart with 2 vectors
   NREBOOT  =      0    no. of reboots
   NMIN     =      0    reboot dimension
   EREF     =   0.00    reference energy to select bands
   IMIX   =      4    mixing-type and parameters
     AMIX     =   0.40;   BMIX     =  1.00
     AMIX_MAG =   1.60;   BMIX_MAG =  1.00
     AMIN     =   0.10
     WC   =   100.;   INIMIX=   1;  MIXPRE=   1;  MAXMIX= -45

 Intra band minimization:
   WEIMIN = 0.0000     energy-eigenvalue tresh-hold
   EBREAK =  0.31E-05  absolut break condition
   DEPER  =   0.30     relativ break condition  

   TIME   =   0.40     timestep for ELM

  volume/ion in A,a.u.               =      19.67       132.75
  Fermi-wavevector in a.u.,A,eV,Ry     =   0.962671  1.819184 12.608995  0.926735
  Thomas-Fermi vector in A             =   2.092150
 
 Write flags
   LWAVE  =      T    write WAVECAR
   LCHARG =      T    write CHGCAR
   LVTOT  =      F    write LOCPOT, total local potential
   LVHAR  =      F    write LOCPOT, Hartree potential only
   LELF   =      F    write electronic localiz. function (ELF)
   LORBIT =      0    0 simple, 1 ext, 2 COOP (PROOUT)


 Dipole corrections
   LMONO  =      F    monopole corrections only (constant potential shift)
   LDIPOL =      F    correct potential (dipole corrections)
   IDIPOL =      0    1-x, 2-y, 3-z, 4-all directions 
   EPSILON=  1.0000000 bulk dielectric constant

 Exchange correlation treatment:
   GGA     =    --    GGA type
   LEXCH   =     2    internal setting for exchange type
   VOSKOWN=      0    Vosko Wilk Nusair interpolation
   LHFCALC =     F    Hartree Fock is set to
   LHFONE  =     F    Hartree Fock one center treatment
   AEXX    =    0.0000 exact exchange contribution

 Linear response parameters
   LEPSILON=     F    determine dielectric tensor
   LRPA    =     F    only Hartree local field effects (RPA)
   LNABLA  =     F    use nabla operator in PAW spheres
   LVEL    =     F    velocity operator in full k-point grid
   LINTERFAST=   F  fast interpolation
   KINTER  =     0    interpolate to denser k-point grid
   CSHIFT  =0.1000    complex shift for real part using Kramers Kronig
   OMEGAMAX=  -1.0    maximum frequency
   DEG_THRESHOLD= 0.2000000E-02 threshold for treating states as degnerate
   RTIME   =    0.100 relaxation time in fs

 Orbital magnetization related:
   ORBITALMAG=     F  switch on orbital magnetization
   LCHIMAG   =     F  perturbation theory with respect to B field
   DQ        =  0.001000  dq finite difference perturbation B field



--------------------------------------------------------------------------------------------------------


 Static calculation
 charge density and potential will be updated during run
 non-spin polarized calculation
 Variant of blocked Davidson
 Davidson routine will perform the subspace rotation
 perform sub-space diagonalisation
    after iterative eigenvector-optimisation
 modified Broyden-mixing scheme, WC =      100.0
 initial mixing is a Kerker type mixing with AMIX =  0.4000 and BMIX =      1.0000
 Hartree-type preconditioning will be used
 using additional bands            4
 reciprocal scheme for non local part
 use partial core corrections
 calculate Harris-corrections to forces 
   (improved forces if not selfconsistent)
 use of overlap-Matrix (Vanderbilt PP)
 Gauss-broadening in eV      SIGMA  =   0.10


--------------------------------------------------------------------------------------------------------


  energy-cutoff  :      240.00
  volume of cell :       39.34
      direct lattice vectors                 reciprocal lattice vectors
     0.000000000  2.699502433  2.699502433    -0.185219318  0.185219318  0.185219318
     2.699502433  0.000000000  2.699502433     0.185219318 -0.185219318  0.185219318
     2.699502433  2.699502433  0.000000000     0.185219318  0.185219318 -0.185219318

  length of vectors
     3.817672953  3.817672953  3.817672953     0.320809270  0.320809270  0.320809270


 
 k-points in units of 2pi/SCALE and weight: k-points                                
   0.00000000  0.00000000  0.00000000       0.001
  -0.09260966  0.09260966  0.09260966       0.006
  -0.18521932  0.18521932  0.18521932       0.006
  -0.27782898  0.27782898  0.27782898       0.006
  -0.37043864  0.37043864  0.37043864       0.006
  -0.46304830  0.46304830  0.46304830       0.006
   0.00000000  0.00000000  0.18521932       0.005
  -0.09260966  0.09260966  0.27782898       0.018
  -0.18521932  0.18521932  0.37043864       0.018
  -0.27782898  0.27782898  0.46304830       0.018
  -0.37043864  0.37043864  0.55565795       0.018
   0.55565795 -0.55565795 -0.37043864       0.018
   0.46304830 -0.46304830 -0.27782898       0.018
   0.37043864 -0.37043864 -0.18521932       0.018
   0.27782898 -0.27782898 -0.09260966       0.018
   0.18521932 -0.18521932  0.00000000       0.009
   0.00000000  0.00000000  0.37043864       0.005
  -0.09260966  0.09260966  0.46304830       0.018
  -0.18521932  0.18521932  0.55565795       0.018
  -0.27782898  0.27782898  0.64826761       0.018
   0.64826761 -0.64826761 -0.27782898       0.018
   0.55565795 -0.55565795 -0.18521932       0.018
   0.46304830 -0.46304830 -0.09260966       0.018
   0.37043864 -0.37043864  0.00000000       0.009
   0.00000000  0.00000000  0.55565795       0.005
  -0.09260966  0.09260966  0.64826761       0.018
  -0.18521932  0.18521932  0.74087727       0.018
   0.74087727 -0.74087727 -0.18521932       0.018
   0.64826761 -0.64826761 -0.09260966       0.018
   0.55565795 -0.55565795  0.00000000       0.009
   0.00000000  0.00000000  0.74087727       0.005
  -0.09260966  0.09260966  0.83348693       0.018
   0.83348693 -0.83348693 -0.09260966       0.018
   0.74087727 -0.74087727  0.00000000       0.009
   0.00000000  0.00000000  0.92609659       0.005
   0.92609659 -0.92609659  0.00000000       0.009
   0.00000000  0.18521932  0.37043864       0.018
  -0.09260966  0.27782898  0.46304830       0.036
  -0.18521932  0.37043864  0.55565795       0.036
   0.74087727 -0.55565795 -0.37043864       0.036
  -0.00000000  0.18521932  0.55565795       0.018
  -0.09260966  0.27782898  0.64826761       0.036
   0.83348693 -0.64826761 -0.27782898       0.036
   0.74087727 -0.55565795 -0.18521932       0.036
   0.64826761 -0.46304830 -0.09260966       0.036
   0.55565795 -0.37043864 -0.00000000       0.018
  -0.00000000  0.18521932  0.74087727       0.018
   0.92609659 -0.74087727 -0.18521932       0.036
   0.83348693 -0.64826761 -0.09260966       0.036
   0.74087727 -0.55565795 -0.00000000       0.018
   1.01870625 -0.83348693 -0.09260966       0.018
   0.92609659 -0.74087727  0.00000000       0.018
   1.01870625 -0.64826761 -0.27782898       0.018
   0.92609659 -0.55565795 -0.18521932       0.036
   1.01870625 -0.64826761 -0.09260966       0.018
   0.92609659 -0.55565795  0.00000000       0.018
 
 k-points in reciprocal lattice and weights: k-points                                
   0.00000000  0.00000000  0.00000000       0.001
   0.09090909  0.00000000  0.00000000       0.006
   0.18181818  0.00000000  0.00000000       0.006
   0.27272727  0.00000000  0.00000000       0.006
   0.36363636  0.00000000  0.00000000       0.006
   0.45454545  0.00000000  0.00000000       0.006
   0.09090909  0.09090909  0.00000000       0.005
   0.18181818  0.09090909  0.00000000       0.018
   0.27272727  0.09090909  0.00000000       0.018
   0.36363636  0.09090909  0.00000000       0.018
   0.45454545  0.09090909  0.00000000       0.018
  -0.45454545  0.09090909  0.00000000       0.018
  -0.36363636  0.09090909  0.00000000       0.018
  -0.27272727  0.09090909  0.00000000       0.018
  -0.18181818  0.09090909  0.00000000       0.018
  -0.09090909  0.09090909  0.00000000       0.009
   0.18181818  0.18181818  0.00000000       0.005
   0.27272727  0.18181818  0.00000000       0.018
   0.36363636  0.18181818  0.00000000       0.018
   0.45454545  0.18181818  0.00000000       0.018
  -0.45454545  0.18181818  0.00000000       0.018
  -0.36363636  0.18181818  0.00000000       0.018
  -0.27272727  0.18181818  0.00000000       0.018
  -0.18181818  0.18181818  0.00000000       0.009
   0.27272727  0.27272727  0.00000000       0.005
   0.36363636  0.27272727  0.00000000       0.018
   0.45454545  0.27272727  0.00000000       0.018
  -0.45454545  0.27272727  0.00000000       0.018
  -0.36363636  0.27272727  0.00000000       0.018
  -0.27272727  0.27272727  0.00000000       0.009
   0.36363636  0.36363636  0.00000000       0.005
   0.45454545  0.36363636  0.00000000       0.018
  -0.45454545  0.36363636  0.00000000       0.018
  -0.36363636  0.36363636  0.00000000       0.009
   0.45454545  0.45454545  0.00000000       0.005
  -0.45454545  0.45454545  0.00000000       0.009
   0.27272727  0.18181818  0.09090909       0.018
   0.36363636  0.18181818  0.09090909       0.036
   0.45454545  0.18181818  0.09090909       0.036
  -0.45454545  0.18181818  0.09090909       0.036
   0.36363636  0.27272727  0.09090909       0.018
   0.45454545  0.27272727  0.09090909       0.036
  -0.45454545  0.27272727  0.09090909       0.036
  -0.36363636  0.27272727  0.09090909       0.036
  -0.27272727  0.27272727  0.09090909       0.036
  -0.18181818  0.27272727  0.09090909       0.018
   0.45454545  0.36363636  0.09090909       0.018
  -0.45454545  0.36363636  0.09090909       0.036
  -0.36363636  0.36363636  0.09090909       0.036
  -0.27272727  0.36363636  0.09090909       0.018
  -0.45454545  0.45454545  0.09090909       0.018
  -0.36363636  0.45454545  0.09090909       0.018
  -0.45454545  0.36363636  0.18181818       0.018
  -0.36363636  0.36363636  0.18181818       0.036
  -0.36363636  0.45454545  0.18181818       0.018
  -0.27272727  0.45454545  0.18181818       0.018
 
 position of ions in fractional coordinates (direct lattice) 
   0.87500000  0.87500000  0.87500000
   0.12500000  0.12500000  0.12500000
 
 position of ions in cartesian coordinates  (Angst):
   4.72412926  4.72412926  4.72412926
   0.67487561  0.67487561  0.67487561
 


--------------------------------------------------------------------------------------------------------


 k-point  1 :   0.0000 0.0000 0.0000  plane waves:     331
 k-point  2 :   0.0909 0.0000 0.0000  plane waves:     332
 k-point  3 :   0.1818 0.0000 0.0000  plane waves:     326
 k-point  4 :   0.2727 0.0000 0.0000  plane waves:     332
 k-point  5 :   0.3636 0.0000 0.0000  plane waves:     338
 k-point  6 :   0.4545 0.0000 0.0000  plane waves:     338
 k-point  7 :   0.0909 0.0909 0.0000  plane waves:     331
 k-point  8 :   0.1818 0.0909 0.0000  plane waves:     327
 k-point  9 :   0.2727 0.0909 0.0000  plane waves:     330
 k-point 10 :   0.3636 0.0909 0.0000  plane waves:     330
 k-point 11 :   0.4545 0.0909 0.0000  plane waves:     337
 k-point 12 :  -0.4545 0.0909 0.0000  plane waves:     334
 k-point 13 :  -0.3636 0.0909 0.0000  plane waves:     334
 k-point 14 :  -0.2727 0.0909 0.0000  plane waves:     333
 k-point 15 :  -0.1818 0.0909 0.0000  plane waves:     323
 k-point 16 :  -0.0909 0.0909 0.0000  plane waves:     329
 k-point 17 :   0.1818 0.1818 0.0000  plane waves:     331
 k-point 18 :   0.2727 0.1818 0.0000  plane waves:     331
 k-point 19 :   0.3636 0.1818 0.0000  plane waves:     328
 k-point 20 :   0.4545 0.1818 0.0000  plane waves:     331
 k-point 21 :  -0.4545 0.1818 0.0000  plane waves:     328
 k-point 22 :  -0.3636 0.1818 0.0000  plane waves:     335
 k-point 23 :  -0.2727 0.1818 0.0000  plane waves:     331
 k-point 24 :  -0.1818 0.1818 0.0000  plane waves:     325
 k-point 25 :   0.2727 0.2727 0.0000  plane waves:     331
 k-point 26 :   0.3636 0.2727 0.0000  plane waves:     331
 k-point 27 :   0.4545 0.2727 0.0000  plane waves:     334
 k-point 28 :  -0.4545 0.2727 0.0000  plane waves:     334
 k-point 29 :  -0.3636 0.2727 0.0000  plane waves:     335
 k-point 30 :  -0.2727 0.2727 0.0000  plane waves:     335
 k-point 31 :   0.3636 0.3636 0.0000  plane waves:     323
 k-point 32 :   0.4545 0.3636 0.0000  plane waves:     331
 k-point 33 :  -0.4545 0.3636 0.0000  plane waves:     335
 k-point 34 :  -0.3636 0.3636 0.0000  plane waves:     337
 k-point 35 :   0.4545 0.4545 0.0000  plane waves:     334
 k-point 36 :  -0.4545 0.4545 0.0000  plane waves:     338
 k-point 37 :   0.2727 0.1818 0.0909  plane waves:     330
 k-point 38 :   0.3636 0.1818 0.0909  plane waves:     331
 k-point 39 :   0.4545 0.1818 0.0909  plane waves:     331
 k-point 40 :  -0.4545 0.1818 0.0909  plane waves:     337
 k-point 41 :   0.3636 0.2727 0.0909  plane waves:     330
 k-point 42 :   0.4545 0.2727 0.0909  plane waves:     329
 k-point 43 :  -0.4545 0.2727 0.0909  plane waves:     331
 k-point 44 :  -0.3636 0.2727 0.0909  plane waves:     335
 k-point 45 :  -0.2727 0.2727 0.0909  plane waves:     336
 k-point 46 :  -0.1818 0.2727 0.0909  plane waves:     325
 k-point 47 :   0.4545 0.3636 0.0909  plane waves:     330
 k-point 48 :  -0.4545 0.3636 0.0909  plane waves:     336
 k-point 49 :  -0.3636 0.3636 0.0909  plane waves:     336
 k-point 50 :  -0.2727 0.3636 0.0909  plane waves:     336
 k-point 51 :  -0.4545 0.4545 0.0909  plane waves:     332
 k-point 52 :  -0.3636 0.4545 0.0909  plane waves:     335
 k-point 53 :  -0.4545 0.3636 0.1818  plane waves:     336
 k-point 54 :  -0.3636 0.3636 0.1818  plane waves:     329
 k-point 55 :  -0.3636 0.4545 0.1818  plane waves:     338
 k-point 56 :  -0.2727 0.4545 0.1818  plane waves:     333

 maximum and minimum number of plane-waves per node :       338      323

 maximum number of plane-waves:       338
 maximum index in each direction: 
   IXMAX=    5   IYMAX=    4   IZMAX=    4
   IXMIN=   -5   IYMIN=   -5   IZMIN=   -5

 WARNING: aliasing errors must be expected set NGX to  22 to avoid them
 WARNING: aliasing errors must be expected set NGY to  20 to avoid them
 WARNING: aliasing errors must be expected set NGZ to  20 to avoid them
 aliasing errors are usually negligible using standard VASP settings
 and one can safely disregard these warnings

 serial   3D FFT for wavefunctions
 parallel 3D FFT for charge:
    minimum data exchange during FFTs selected (reduces bandwidth)


 total amount of memory used by VASP on root node    35781. kBytes
========================================================================

   base      :      30000. kBytes
   nonl-proj :       1222. kBytes
   fftplans  :        800. kBytes
   grid      :       1216. kBytes
   one-center:          6. kBytes
   wavefun   :       2537. kBytes
 
     INWAV:  cpu time    0.00: real time    0.00
 Broyden mixing: mesh for mixing (old mesh)
   NGX =  9   NGY =  9   NGZ =  9
  (NGX  = 28   NGY  = 28   NGZ  = 28)
  gives a total of    729 points

 initial charge density was supplied:
 charge density of overlapping atoms calculated
 number of electron       8.0000000 magnetization 
 keeping initial charge density in first step


--------------------------------------------------------------------------------------------------------


 Maximum index for augmentation-charges         2310 (set IRDMAX)


--------------------------------------------------------------------------------------------------------


 First call to EWALD:  gamma=   0.521
 Maximum number of real-space cells 3x 3x 3
 Maximum number of reciprocal cells 3x 3x 3

 FEWALD executed in parallel
    FEWALD:  cpu time    0.00: real time    0.00


----------------------------------------- Iteration    1(   1)  ---------------------------------------


    POTLOK:  cpu time    0.00: real time    0.00
    SETDIJ:  cpu time    0.00: real time    0.00
     EDDAV:  cpu time    0.24: real time    0.24
       DOS:  cpu time    0.00: real time    0.00
    --------------------------------------------
      LOOP:  cpu time    0.24: real time    0.25

 eigenvalue-minimisations  :   928
 total energy-change (2. order) :-0.4270389E+01  (-0.2091697E+03)
 number of electron       8.0000000 magnetization 
 augmentation part        8.0000000 magnetization 

 Free energy of the ion-electron system (eV)
  ---------------------------------------------------
  alpha Z        PSCENC =         2.41005741
  Ewald energy   TEWEN  =      -229.87568469
  -Hartree energ DENC   =       -10.82402339
  -exchange      EXHF   =         0.00000000
  -V(xc)+E(xc)   XCENC  =       -18.55278371
  PAW double counting   =        67.11795164      -32.28261218
  entropy T*S    EENTRO =        -0.00331484
  eigenvalues    EBANDS =        10.88478011
  atomic energy  EATOM  =       206.85524113
  ---------------------------------------------------
  free energy    TOTEN  =        -4.27038850 eV

  energy without entropy =       -4.26707367  energy(sigma->0) =       -4.26873109


--------------------------------------------------------------------------------------------------------




----------------------------------------- Iteration    1(   2)  ---------------------------------------


     EDDAV:  cpu time    0.35: real time    0.35
       DOS:  cpu time    0.00: real time    0.00
    --------------------------------------------
      LOOP:  cpu time    0.35: real time    0.36

 eigenvalue-minimisations  :  1432
 total energy-change (2. order) :-0.7819557E+01  (-0.7383029E+01)
 number of electron       8.0000000 magnetization 
 augmentation part        8.0000000 magnetization 

 Free energy of the ion-electron system (eV)
  ---------------------------------------------------
  alpha Z        PSCENC =         2.41005741
  Ewald energy   TEWEN  =      -229.87568469
  -Hartree energ DENC   =       -10.82402339
  -exchange      EXHF   =         0.00000000
  -V(xc)+E(xc)   XCENC  =       -18.55278371
  PAW double counting   =        67.11795164      -32.28261218
  entropy T*S    EENTRO =        -0.00000000
  eigenvalues    EBANDS =         3.06190820
  atomic energy  EATOM  =       206.85524113
  ---------------------------------------------------
  free energy    TOTEN  =       -12.08994558 eV

  energy without entropy =      -12.08994558  energy(sigma->0) =      -12.08994558


--------------------------------------------------------------------------------------------------------




----------------------------------------- Iteration    1(   3)  ---------------------------------------


     EDDAV:  cpu time    0.30: real time    0.30
       DOS:  cpu time    0.00: real time    0.00
    --------------------------------------------
      LOOP:  cpu time    0.30: real time    0.30

 eigenvalue-minimisations  :  1184
 total energy-change (2. order) :-0.7179455E-01  (-0.7179455E-01)
 number of electron       8.0000000 magnetization 
 augmentation part        8.0000000 magnetization 

 Free energy of the ion-electron system (eV)
  ---------------------------------------------------
  alpha Z        PSCENC =         2.41005741
  Ewald energy   TEWEN  =      -229.87568469
  -Hartree energ DENC   =       -10.82402339
  -exchange      EXHF   =         0.00000000
  -V(xc)+E(xc)   XCENC  =       -18.55278371
  PAW double counting   =        67.11795164      -32.28261218
  entropy T*S    EENTRO =        -0.00000000
  eigenvalues    EBANDS =         2.99011365
  atomic energy  EATOM  =       206.85524113
  ---------------------------------------------------
  free energy    TOTEN  =       -12.16174013 eV

  energy without entropy =      -12.16174013  energy(sigma->0) =      -12.16174013


--------------------------------------------------------------------------------------------------------




----------------------------------------- Iteration    1(   4)  ---------------------------------------


     EDDAV:  cpu time    0.35: real time    0.35
       DOS:  cpu time    0.00: real time    0.00
    --------------------------------------------
      LOOP:  cpu time    0.35: real time    0.35

 eigenvalue-minimisations  :  1408
 total energy-change (2. order) :-0.1853752E-03  (-0.1853750E-03)
 number of electron       8.0000000 magnetization 
 augmentation part        8.0000000 magnetization 

 Free energy of the ion-electron system (eV)
  ---------------------------------------------------
  alpha Z        PSCENC =         2.41005741
  Ewald energy   TEWEN  =      -229.87568469
  -Hartree energ DENC   =       -10.82402339
  -exchange      EXHF   =         0.00000000
  -V(xc)+E(xc)   XCENC  =       -18.55278371
  PAW double counting   =        67.11795164      -32.28261218
  entropy T*S    EENTRO =        -0.00000000
  eigenvalues    EBANDS =         2.98992827
  atomic energy  EATOM  =       206.85524113
  ---------------------------------------------------
  free energy    TOTEN  =       -12.16192550 eV

  energy without entropy =      -12.16192550  energy(sigma->0) =      -12.16192550


--------------------------------------------------------------------------------------------------------




----------------------------------------- Iteration    1(   5)  ---------------------------------------


     EDDAV:  cpu time    0.29: real time    0.29
       DOS:  cpu time    0.00: real time    0.00
    CHARGE:  cpu time    0.01: real time    0.01
    MIXING:  cpu time    0.00: real time    0.00
    --------------------------------------------
      LOOP:  cpu time    0.31: real time    0.33

 eigenvalue-minimisations  :  1176
 total energy-change (2. order) :-0.8588572E-07  (-0.8582629E-07)
 number of electron       7.9999972 magnetization 
 augmentation part       -0.4968986 magnetization 

 Broyden mixing:
  rms(total) = 0.30804E+00    rms(broyden)= 0.30800E+00
  rms(prec ) = 0.90177E+00
  weight for this iteration     100.00

 Free energy of the ion-electron system (eV)
  ---------------------------------------------------
  alpha Z        PSCENC =         2.41005741
  Ewald energy   TEWEN  =      -229.87568469
  -Hartree energ DENC   =       -10.82402339
  -exchange      EXHF   =         0.00000000
  -V(xc)+E(xc)   XCENC  =       -18.55278371
  PAW double counting   =        67.11795164      -32.28261218
  entropy T*S    EENTRO =        -0.00000000
  eigenvalues    EBANDS =         2.98992819
  atomic energy  EATOM  =       206.85524113
  ---------------------------------------------------
  free energy    TOTEN  =       -12.16192559 eV

  energy without entropy =      -12.16192559  energy(sigma->0) =      -12.16192559


--------------------------------------------------------------------------------------------------------




----------------------------------------- Iteration    1(   6)  ---------------------------------------


    POTLOK:  cpu time    0.00: real time    0.00
    SETDIJ:  cpu time    0.00: real time    0.00
     EDDAV:  cpu time    0.26: real time    0.26
       DOS:  cpu time    0.00: real time    0.00
    CHARGE:  cpu time    0.01: real time    0.01
    MIXING:  cpu time    0.00: real time    0.00
    --------------------------------------------
      LOOP:  cpu time    0.29: real time    0.30

 eigenvalue-minimisations  :  1056
 total energy-change (2. order) : 0.1872054E+00  (-0.1280394E-01)
 number of electron       7.9999972 magnetization 
 augmentation part       -0.4905931 magnetization 

 Broyden mixing:
  rms(total) = 0.17755E+00    rms(broyden)= 0.17755E+00
  rms(prec ) = 0.51423E+00
  weight for this iteration     100.00

 eigenvalues of (default mixing * dielectric matrix)
  average eigenvalue GAMMA=   2.3390
  2.3390

 Free energy of the ion-electron system (eV)
  ---------------------------------------------------
  alpha Z        PSCENC =         2.41005741
  Ewald energy   TEWEN  =      -229.87568469
  -Hartree energ DENC   =       -12.37941360
  -exchange      EXHF   =         0.00000000
  -V(xc)+E(xc)   XCENC  =       -18.31331365
  PAW double counting   =        71.61706683      -36.90425439
  entropy T*S    EENTRO =        -0.00000000
  eigenvalues    EBANDS =         4.61558078
  atomic energy  EATOM  =       206.85524113
  ---------------------------------------------------
  free energy    TOTEN  =       -11.97472018 eV

  energy without entropy =      -11.97472018  energy(sigma->0) =      -11.97472018


--------------------------------------------------------------------------------------------------------




----------------------------------------- Iteration    1(   7)  ---------------------------------------


    POTLOK:  cpu time    0.00: real time    0.00
    SETDIJ:  cpu time    0.00: real time    0.00
     EDDAV:  cpu time    0.26: real time    0.27
       DOS:  cpu time    0.00: real time    0.00
    CHARGE:  cpu time    0.01: real time    0.01
    MIXING:  cpu time    0.00: real time    0.00
    --------------------------------------------
      LOOP:  cpu time    0.29: real time    0.31

 eigenvalue-minimisations  :  1072
 total energy-change (2. order) : 0.8440648E-01  (-0.2145786E-01)
 number of electron       7.9999973 magnetization 
 augmentation part       -0.4832664 magnetization 

 Broyden mixing:
  rms(total) = 0.16537E-01    rms(broyden)= 0.16536E-01
  rms(prec ) = 0.44705E-01
  weight for this iteration     100.00

 eigenvalues of (default mixing * dielectric matrix)
  average eigenvalue GAMMA=   2.4284
  2.4284  2.4284

 Free energy of the ion-electron system (eV)
  ---------------------------------------------------
  alpha Z        PSCENC =         2.41005741
  Ewald energy   TEWEN  =      -229.87568469
  -Hartree energ DENC   =       -14.67193159
  -exchange      EXHF   =         0.00000000
  -V(xc)+E(xc)   XCENC  =       -17.92199360
  PAW double counting   =        77.40111068      -42.83836186
  entropy T*S    EENTRO =        -0.00000249
  eigenvalues    EBANDS =         6.75125130
  atomic energy  EATOM  =       206.85524113
  ---------------------------------------------------
  free energy    TOTEN  =       -11.89031370 eV

  energy without entropy =      -11.89031121  energy(sigma->0) =      -11.89031246


--------------------------------------------------------------------------------------------------------




----------------------------------------- Iteration    1(   8)  ---------------------------------------


    POTLOK:  cpu time    0.00: real time    0.00
    SETDIJ:  cpu time    0.00: real time    0.00
     EDDAV:  cpu time    0.24: real time    0.24
       DOS:  cpu time    0.00: real time    0.00
    CHARGE:  cpu time    0.01: real time    0.01
    MIXING:  cpu time    0.00: real time    0.00
    --------------------------------------------
      LOOP:  cpu time    0.27: real time    0.27

 eigenvalue-minimisations  :   976
 total energy-change (2. order) :-0.1175065E-03  (-0.5480319E-03)
 number of electron       7.9999973 magnetization 
 augmentation part       -0.4848228 magnetization 

 Broyden mixing:
  rms(total) = 0.29338E-02    rms(broyden)= 0.29308E-02
  rms(prec ) = 0.10732E-01
  weight for this iteration     100.00

 eigenvalues of (default mixing * dielectric matrix)
  average eigenvalue GAMMA=   2.0338
  1.5316  2.6637  1.9062

 Free energy of the ion-electron system (eV)
  ---------------------------------------------------
  alpha Z        PSCENC =         2.41005741
  Ewald energy   TEWEN  =      -229.87568469
  -Hartree energ DENC   =       -14.57292074
  -exchange      EXHF   =         0.00000000
  -V(xc)+E(xc)   XCENC  =       -17.90593142
  PAW double counting   =        76.53472341      -41.94614131
  entropy T*S    EENTRO =        -0.00000145
  eigenvalues    EBANDS =         6.61022645
  atomic energy  EATOM  =       206.85524113
  ---------------------------------------------------
  free energy    TOTEN  =       -11.89043121 eV

  energy without entropy =      -11.89042976  energy(sigma->0) =      -11.89043048


--------------------------------------------------------------------------------------------------------




----------------------------------------- Iteration    1(   9)  ---------------------------------------


    POTLOK:  cpu time    0.00: real time    0.00
    SETDIJ:  cpu time    0.00: real time    0.00
     EDDAV:  cpu time    0.30: real time    0.30
       DOS:  cpu time    0.00: real time    0.00
    --------------------------------------------
      LOOP:  cpu time    0.31: real time    0.32

 eigenvalue-minimisations  :  1208
 total energy-change (2. order) : 0.3825216E-04  (-0.1735501E-04)
 number of electron       7.9999973 magnetization 
 augmentation part       -0.4848228 magnetization 

 Free energy of the ion-electron system (eV)
  ---------------------------------------------------
  alpha Z        PSCENC =         2.41005741
  Ewald energy   TEWEN  =      -229.87568469
  -Hartree energ DENC   =       -14.62950887
  -exchange      EXHF   =         0.00000000
  -V(xc)+E(xc)   XCENC  =       -17.89736611
  PAW double counting   =        76.68514899      -42.10083798
  entropy T*S    EENTRO =        -0.00000166
  eigenvalues    EBANDS =         6.66255882
  atomic energy  EATOM  =       206.85524113
  ---------------------------------------------------
  free energy    TOTEN  =       -11.89039296 eV

  energy without entropy =      -11.89039130  energy(sigma->0) =      -11.89039213


--------------------------------------------------------------------------------------------------------




 average (electrostatic) potential at core
  the test charge radii are     0.9892
  (the norm of the test charge is              1.0000)
       1 -84.7008       2 -84.7008
 
 
 
 E-fermi :   6.1904     XC(G=0):  -9.6733     alpha+bet :-12.3022


 k-point     1 :       0.0000    0.0000    0.0000
  band No.  band energies     occupation 
      1      -6.1283      2.00000
      2       5.9653      1.99854
      3       5.9654      1.99854
      4       5.9654      1.99854
      5       8.4968      0.00000
      6       8.4969      0.00000
      7       8.4969      0.00000
      8       9.3613      0.00000

 k-point     2 :       0.0909    0.0000    0.0000
  band No.  band energies     occupation 
      1      -6.0184      2.00000
      2       4.9618      2.00000
      3       5.7927      2.00000
      4       5.7928      2.00000
      5       8.5307      0.00000
      6       8.7496      0.00000
      7       8.7497      0.00000
      8      10.1320      0.00000

 k-point     3 :       0.1818    0.0000    0.0000
  band No.  band energies     occupation 
      1      -5.6926      2.00000
      2       3.2590      2.00000
      3       5.4443      2.00000
      4       5.4444      2.00000
      5       8.2250      0.00000
      6       9.2304      0.00000
      7       9.2306      0.00000
      8      11.7022      0.00000

 k-point     4 :       0.2727    0.0000    0.0000
  band No.  band energies     occupation 
      1      -5.1673      2.00000
      2       1.5716      2.00000
      3       5.1137      2.00000
      4       5.1138      2.00000
      5       7.8735      0.00000
      6       9.4738      0.00000
      7       9.4740      0.00000
      8      13.2125      0.00000

 k-point     5 :       0.3636    0.0000    0.0000
  band No.  band energies     occupation 
      1      -4.4921      2.00000
      2       0.0886      2.00000
      3       4.8798      2.00000
      4       4.8799      2.00000
      5       7.6113      0.00000
      6       9.3990      0.00000
      7       9.3992      0.00000
      8      13.6973      0.00000

 k-point     6 :       0.4545    0.0000    0.0000
  band No.  band energies     occupation 
      1      -3.8615      2.00000
      2      -0.9539      2.00000
      3       4.7609      2.00000
      4       4.7610      2.00000
      5       7.4759      0.00000
      6       9.2819      0.00000
      7       9.2820      0.00000
      8      13.5283      0.00000

 k-point     7 :       0.0909    0.0909    0.0000
  band No.  band energies     occupation 
      1      -5.9815      2.00000
      2       5.1625      2.00000
      3       5.4544      2.00000
      4       5.4545      2.00000
      5       8.1558      0.00000
      6       9.1857      0.00000
      7       9.1858      0.00000
      8      10.0833      0.00000

 k-point     8 :       0.1818    0.0909    0.0000
  band No.  band energies     occupation 
      1      -5.7270      2.00000
      2       3.7745      2.00000
      3       5.0467      2.00000
      4       5.2419      2.00000
      5       8.1905      0.00000
      6       9.2677      0.00000
      7       9.7900      0.00000
      8      10.9365      0.00000

 k-point     9 :       0.2727    0.0909    0.0000
  band No.  band energies     occupation 
      1      -5.2657      2.00000
      2       2.1237      2.00000
      3       4.7221      2.00000
      4       4.8596      2.00000
      5       8.3308      0.00000
      6       9.2471      0.00000
      7      10.1410      0.00000
      8      11.2836      0.00000

 k-point    10 :       0.3636    0.0909    0.0000
  band No.  band energies     occupation 
      1      -4.6308      2.00000
      2       0.5870      2.00000
      3       4.4702      2.00000
      4       4.5345      2.00000
      5       8.1881      0.00000
      6       9.2502      0.00000
      7      10.0570      0.00000
      8      12.0661      0.00000

 k-point    11 :       0.4545    0.0909    0.0000
  band No.  band energies     occupation 
      1      -3.9422      2.00000
      2      -0.6346      2.00000
      3       4.1652      2.00000
      4       4.4961      2.00000
      5       8.0521      0.00000
      6       9.1890      0.00000
      7       9.8034      0.00000
      8      13.2950      0.00000

 k-point    12 :      -0.4545    0.0909    0.0000
  band No.  band energies     occupation 
      1      -3.6613      2.00000
      2      -1.0496      2.00000
      3       3.9829      2.00000
      4       4.6021      2.00000
      5       8.0323      0.00000
      6       9.2390      0.00000
      7       9.6090      0.00000
      8      13.9031      0.00000

 k-point    13 :      -0.3636    0.0909    0.0000
  band No.  band energies     occupation 
      1      -4.1626      2.00000
      2      -0.2776      2.00000
      3       3.9425      2.00000
      4       4.8353      2.00000
      5       8.1393      0.00000
      6       9.4345      0.00000
      7       9.5348      0.00000
      8      13.6618      0.00000

 k-point    14 :      -0.2727    0.0909    0.0000
  band No.  band energies     occupation 
      1      -4.8593      2.00000
      2       1.0792      2.00000
      3       4.0619      2.00000
      4       5.1681      2.00000
      5       8.3616      0.00000
      6       9.4762      0.00000
      7       9.6665      0.00000
      8      12.6622      0.00000

 k-point    15 :      -0.1818    0.0909    0.0000
  band No.  band energies     occupation 
      1      -5.4421      2.00000
      2       2.6602      2.00000
      3       4.3596      2.00000
      4       5.5417      2.00000
      5       8.6654      0.00000
      6       9.2031      0.00000
      7       9.5664      0.00000
      8      11.8088      0.00000

 k-point    16 :      -0.0909    0.0909    0.0000
  band No.  band energies     occupation 
      1      -5.8362      2.00000
      2       4.1561      2.00000
      3       4.9350      2.00000
      4       5.8222      2.00000
      5       8.7972      0.00000
      6       8.9132      0.00000
      7       8.9616      0.00000
      8      10.9871      0.00000

 k-point    17 :       0.1818    0.1818    0.0000
  band No.  band energies     occupation 
      1      -5.5439      2.00000
      2       3.6559      2.00000
      3       4.6021      2.00000
      4       4.6022      2.00000
      5       7.4744      0.00000
      6      10.0549      0.00000
      7      10.5656      0.00000
      8      10.5657      0.00000

 k-point    18 :       0.2727    0.1818    0.0000
  band No.  band energies     occupation 
      1      -5.1502      2.00000
      2       2.4725      2.00000
      3       4.1760      2.00000
      4       4.2519      2.00000
      5       7.5287      0.00000
      6       9.6064      0.00000
      7      10.8474      0.00000
      8      11.1528      0.00000

 k-point    19 :       0.3636    0.1818    0.0000
  band No.  band energies     occupation 
      1      -4.5680      2.00000
      2       1.0689      2.00000
      3       3.6322      2.00000
      4       4.0532      2.00000
      5       7.7644      0.00000
      6       9.9782      0.00000
      7      10.6380      0.00000
      8      11.2204      0.00000

 k-point    20 :       0.4545    0.1818    0.0000
  band No.  band energies     occupation 
      1      -3.8712      2.00000
      2      -0.1999      2.00000
      3       3.1452      2.00000
      4       4.0224      2.00000
      5       7.7994      0.00000
      6      10.4065      0.00000
      7      10.9477      0.00000
      8      11.2139      0.00000

 k-point    21 :      -0.4545    0.1818    0.0000
  band No.  band energies     occupation 
      1      -3.3704      2.00000
      2      -0.9337      2.00000
      3       2.8005      2.00000
      4       4.1588      2.00000
      5       7.9065      0.00000
      6      10.2688      0.00000
      7      10.6475      0.00000
      8      12.8683      0.00000

 k-point    22 :      -0.3636    0.1818    0.0000
  band No.  band energies     occupation 
      1      -3.6666      2.00000
      2      -0.5085      2.00000
      3       2.6394      2.00000
      4       4.4441      2.00000
      5       8.1757      0.00000
      6      10.2478      0.00000
      7      10.4192      0.00000
      8      13.6992      0.00000

 k-point    23 :      -0.2727    0.1818    0.0000
  band No.  band energies     occupation 
      1      -4.3568      2.00000
      2       0.6399      2.00000
      3       2.7140      2.00000
      4       4.8419      2.00000
      5       8.5704      0.00000
      6      10.1823      0.00000
      7      10.2926      0.00000
      8      12.3005      0.00000

 k-point    24 :      -0.1818    0.1818    0.0000
  band No.  band energies     occupation 
      1      -4.9863      2.00000
      2       1.8582      2.00000
      3       3.2003      2.00000
      4       5.2680      2.00000
      5       8.9354      0.00000
      6       9.6943      0.00000
      7       9.9857      0.00000
      8      11.6122      0.00000

 k-point    25 :       0.2727    0.2727    0.0000
  band No.  band energies     occupation 
      1      -4.8236      2.00000
      2       2.0209      2.00000
      3       3.8658      2.00000
      4       3.8658      2.00000
      5       6.8580      0.00000
      6       8.6610      0.00000
      7      12.1531      0.00000
      8      12.1531      0.00000

 k-point    26 :       0.3636    0.2727    0.0000
  band No.  band energies     occupation 
      1      -4.3010      2.00000
      2       1.0514      2.00000
      3       3.3075      2.00000
      4       3.6306      2.00000
      5       6.9925      0.00000
      6       8.3683      0.00000
      7      12.4414      0.00000
      8      12.6139      0.00000

 k-point    27 :       0.4545    0.2727    0.0000
  band No.  band energies     occupation 
      1      -3.6274      2.00000
      2       0.0001      2.00000
      3       2.5547      2.00000
      4       3.5694      2.00000
      5       7.1834      0.00000
      6       9.1534      0.00000
      7      12.2769      0.00000
      8      12.4604      0.00000

 k-point    28 :      -0.4545    0.2727    0.0000
  band No.  band energies     occupation 
      1      -2.9937      2.00000
      2      -0.8267      2.00000
      3       1.9656      2.00000
      4       3.6852      2.00000
      5       7.3197      0.00000
      6      10.6569      0.00000
      7      12.1110      0.00000
      8      12.1198      0.00000

 k-point    29 :      -0.3636    0.2727    0.0000
  band No.  band energies     occupation 
      1      -3.0491      2.00000
      2      -0.7466      2.00000
      3       1.6687      2.00000
      4       3.9670      2.00000
      5       7.6217      0.00000
      6      11.7576      0.00000
      7      11.7652      0.00000
      8      12.7075      0.00000

 k-point    30 :      -0.2727    0.2727    0.0000
  band No.  band energies     occupation 
      1      -3.7016      2.00000
      2       0.0318      2.00000
      3       1.8297      2.00000
      4       4.3801      2.00000
      5       8.0899      0.00000
      6      11.1689      0.00000
      7      11.4893      0.00000
      8      12.3794      0.00000

 k-point    31 :       0.3636    0.3636    0.0000
  band No.  band energies     occupation 
      1      -3.8373      2.00000
      2       0.3829      2.00000
      3       3.3508      2.00000
      4       3.3508      2.00000
      5       6.4829      0.00004
      6       7.4967      0.00000
      7      13.8350      0.00000
      8      13.8350      0.00000

 k-point    32 :       0.4545    0.3636    0.0000
  band No.  band energies     occupation 
      1      -3.2038      2.00000
      2      -0.4432      2.00000
      3       2.7891      2.00000
      4       3.2438      2.00000
      5       6.6905      0.00000
      6       7.5263      0.00000
      7      14.1561      0.00000
      8      14.1621      0.00000

 k-point    33 :      -0.4545    0.3636    0.0000
  band No.  band energies     occupation 
      1      -2.5122      2.00000
      2      -1.1728      2.00000
      3       1.9749      2.00000
      4       3.3190      2.00000
      5       6.8569      0.00000
      6       8.7501      0.00000
      7      13.8600      0.00000
      8      14.0163      0.00000

 k-point    34 :      -0.3636    0.3636    0.0000
  band No.  band energies     occupation 
      1      -2.4369      2.00000
      2      -1.2121      2.00000
      3       1.4699      2.00000
      4       3.5688      2.00000
      5       7.1446      0.00000
      6      10.5007      0.00000
      7      13.1781      0.00000
      8      13.7096      0.00000

 k-point    35 :       0.4545    0.4545    0.0000
  band No.  band energies     occupation 
      1      -2.6110      2.00000
      2      -1.1845      2.00000
      3       3.0869      2.00000
      4       3.0869      2.00000
      5       6.4302      0.00069
      6       6.7550      0.00000
      7      15.5392      0.00000
      8      15.5392      0.00000

 k-point    36 :      -0.4545    0.4545    0.0000
  band No.  band energies     occupation 
      1      -1.9506      2.00000
      2      -1.8409      2.00000
      3       2.6191      2.00000
      4       3.1127      2.00000
      5       6.6107      0.00000
      6       7.2192      0.00000
      7      15.4619      0.00000
      8      15.7102      0.00000

 k-point    37 :       0.2727    0.1818    0.0909
  band No.  band energies     occupation 
      1      -5.4033      2.00000
      2       2.9157      2.00000
      3       4.0716      2.00000
      4       5.1273      2.00000
      5       8.2446      0.00000
      6       9.6029      0.00000
      7      10.3444      0.00000
      8      10.6942      0.00000

 k-point    38 :       0.3636    0.1818    0.0909
  band No.  band energies     occupation 
      1      -4.8807      2.00000
      2       1.5701      2.00000
      3       3.5015      2.00000
      4       4.7973      2.00000
      5       8.5656      0.00000
      6       9.5304      0.00000
      7      10.6297      0.00000
      8      10.8413      0.00000

 k-point    39 :       0.4545    0.1818    0.0909
  band No.  band energies     occupation 
      1      -4.2074      2.00000
      2       0.1953      2.00000
      3       3.2471      2.00000
      4       4.4430      2.00000
      5       8.6114      0.00000
      6       9.2726      0.00000
      7      10.7648      0.00000
      8      11.6759      0.00000

 k-point    40 :      -0.4545    0.1818    0.0909
  band No.  band energies     occupation 
      1      -3.5731      2.00000
      2      -0.8147      2.00000
      3       3.1499      2.00000
      4       4.2255      2.00000
      5       8.6048      0.00000
      6       9.0325      0.00000
      7      10.6924      0.00000
      8      13.1647      0.00000

 k-point    41 :       0.3636    0.2727    0.0909
  band No.  band energies     occupation 
      1      -4.6928      2.00000
      2       1.6243      2.00000
      3       3.3399      2.00000
      4       4.0875      2.00000
      5       7.6580      0.00000
      6       9.1834      0.00000
      7      10.9642      0.00000
      8      12.0262      0.00000

 k-point    42 :       0.4545    0.2727    0.0909
  band No.  band energies     occupation 
      1      -4.0624      2.00000
      2       0.5230      2.00000
      3       2.7522      2.00000
      4       3.7616      2.00000
      5       8.0187      0.00000
      6       9.6076      0.00000
      7      10.6402      0.00000
      8      12.4173      0.00000

 k-point    43 :      -0.4545    0.2727    0.0909
  band No.  band energies     occupation 
      1      -3.3711      2.00000
      2      -0.5159      2.00000
      3       2.3616      2.00000
      4       3.6004      2.00000
      5       8.1488      0.00000
      6      10.1979      0.00000
      7      11.0380      0.00000
      8      12.3700      0.00000

 k-point    44 :      -0.3636    0.2727    0.0909
  band No.  band energies     occupation 
      1      -3.0933      2.00000
      2      -0.8792      2.00000
      3       2.1248      2.00000
      4       3.6930      2.00000
      5       8.3699      0.00000
      6       9.9335      0.00000
      7      12.2461      0.00000
      8      12.7319      0.00000

 k-point    45 :      -0.2727    0.2727    0.0909
  band No.  band energies     occupation 
      1      -3.6169      2.00000
      2      -0.1659      2.00000
      3       2.1064      2.00000
      4       3.9980      2.00000
      5       8.7508      0.00000
      6       9.7382      0.00000
      7      11.4977      0.00000
      8      12.1627      0.00000

 k-point    46 :      -0.1818    0.2727    0.0909
  band No.  band energies     occupation 
      1      -4.3086      2.00000
      2       0.8391      2.00000
      3       2.4876      2.00000
      4       4.4275      2.00000
      5       9.2229      0.00000
      6       9.3245      0.00000
      7      10.5729      0.00000
      8      11.7152      0.00000

 k-point    47 :       0.4545    0.3636    0.0909
  band No.  band energies     occupation 
      1      -3.7248      2.00000
      2       0.2444      2.00000
      3       2.8546      2.00000
      4       3.2590      2.00000
      5       7.2815      0.00000
      6       8.1211      0.00000
      7      12.3549      0.00000
      8      13.7973      0.00000

 k-point    48 :      -0.4545    0.3636    0.0909
  band No.  band energies     occupation 
      1      -3.0285      2.00000
      2      -0.5916      2.00000
      3       2.1843      2.00000
      4       3.0738      2.00000
      5       7.6234      0.00000
      6       8.9695      0.00000
      7      11.9865      0.00000
      8      14.1594      0.00000

 k-point    49 :      -0.3636    0.3636    0.0909
  band No.  band energies     occupation 
      1      -2.5415      2.00000
      2      -1.1059      2.00000
      3       1.6425      2.00000
      4       3.1937      2.00000
      5       7.8427      0.00000
      6      10.5619      0.00000
      7      11.6854      0.00000
      8      13.2976      0.00000

 k-point    50 :      -0.2727    0.3636    0.0909
  band No.  band energies     occupation 
      1      -2.9374      2.00000
      2      -0.6986      2.00000
      3       1.5339      2.00000
      4       3.5265      2.00000
      5       8.2283      0.00000
      6      11.0129      0.00000
      7      11.7687      0.00000
      8      12.6679      0.00000

 k-point    51 :      -0.4545    0.4545    0.0909
  band No.  band energies     occupation 
      1      -2.5339      2.00000
      2      -1.1789      2.00000
      3       2.6591      2.00000
      4       2.7838      2.00000
      5       7.1992      0.00000
      6       7.4656      0.00000
      7      13.9011      0.00000
      8      15.3518      0.00000

 k-point    52 :      -0.3636    0.4545    0.0909
  band No.  band energies     occupation 
      1      -2.0111      2.00000
      2      -1.6360      2.00000
      3       1.9648      2.00000
      4       2.8580      2.00000
      5       7.4834      0.00000
      6       8.7632      0.00000
      7      13.4362      0.00000
      8      13.6659      0.00000

 k-point    53 :      -0.4545    0.3636    0.1818
  band No.  band energies     occupation 
      1      -3.4045      2.00000
      2      -0.1586      2.00000
      3       2.0662      2.00000
      4       3.2744      2.00000
      5       8.9821      0.00000
      6       9.5889      0.00000
      7      10.2663      0.00000
      8      13.6795      0.00000

 k-point    54 :      -0.3636    0.3636    0.1818
  band No.  band energies     occupation 
      1      -2.7516      2.00000
      2      -0.8746      2.00000
      3       1.7779      2.00000
      4       2.9422      2.00000
      5       9.3355      0.00000
      6       9.7385      0.00000
      7      11.0284      0.00000
      8      12.9255      0.00000

 k-point    55 :      -0.3636    0.4545    0.1818
  band No.  band energies     occupation 
      1      -2.3382      2.00000
      2      -1.2189      2.00000
      3       2.0122      2.00000
      4       2.4045      2.00000
      5       8.8847      0.00000
      6       9.0838      0.00000
      7      11.5650      0.00000
      8      13.1724      0.00000

 k-point    56 :      -0.2727    0.4545    0.1818
  band No.  band energies     occupation 
      1      -2.1293      2.00000
      2      -1.3877      2.00000
      3       1.7188      2.00000
      4       2.4431      2.00000
      5       9.2353      0.00000
      6      10.5169      0.00000
      7      11.3306      0.00000
      8      11.3585      0.00000


--------------------------------------------------------------------------------------------------------


 soft charge-density along one line, spin component           1
         0         1         2         3         4         5         6         7         8         9
 total charge-density along one line
 
 pseudopotential strength for first ion, spin component:           1
 19.433  -0.001  -0.000  -0.000  -0.000   0.000   0.000   0.000
 -0.001   0.006   0.000   0.000   0.000  -0.000  -0.000  -0.000
 -0.000   0.000   4.360  -0.000  -0.000  -0.005   0.000   0.000
 -0.000   0.000  -0.000   4.360  -0.000   0.000  -0.005   0.000
 -0.000   0.000  -0.000  -0.000   4.360   0.000   0.000  -0.005
  0.000  -0.000  -0.005   0.000   0.000   0.005  -0.000  -0.000
  0.000  -0.000   0.000  -0.005   0.000  -0.000   0.005  -0.000
  0.000  -0.000   0.000   0.000  -0.005  -0.000  -0.000   0.005
 total augmentation occupancy for first ion, spin component:           1
  1.493  -0.899   0.000  -0.000  -0.000  -0.000   0.000   0.000
 -0.899   0.934  -0.000   0.000   0.000  -0.000  -0.000  -0.000
  0.000   0.000   1.036   0.000   0.000  -0.698   0.000   0.000
  0.000   0.000  -0.000   1.036  -0.000  -0.000  -0.698   0.000
  0.000   0.000   0.000  -0.000   1.036   0.000   0.000  -0.698
 -0.000  -0.000  -0.698  -0.000   0.000   0.531   0.000   0.000
  0.000  -0.000  -0.000  -0.698   0.000   0.000   0.531   0.000
  0.000  -0.000   0.000   0.000  -0.698   0.000   0.000   0.531


------------------------ aborting loop because EDIFF is reached ----------------------------------------


    CHARGE:  cpu time    0.01: real time    0.01
    FORLOC:  cpu time    0.00: real time    0.00
    FORNL :  cpu time    0.03: real time    0.03
    STRESS:  cpu time    0.11: real time    0.11
    FORCOR:  cpu time    0.00: real time    0.01
    FORHAR:  cpu time    0.00: real time    0.00
    MIXING:  cpu time    0.00: real time    0.00
    OFIELD:  cpu time    0.00: real time    0.00

  FORCE on cell =-STRESS in cart. coord.  units (eV):
  Direction    XX          YY          ZZ          XY          YZ          ZX
  --------------------------------------------------------------------------------------
  Alpha Z     2.41006     2.41006     2.41006
  Ewald     -76.62526   -76.62526   -76.62526     0.00000     0.00000     0.00000
  Hartree     4.87828     4.87828     4.87828    -0.00000    -0.00000    -0.00000
  E(xc)     -26.05702   -26.05702   -26.05702    -0.00000    -0.00000    -0.00000
  Local     -30.37695   -30.37695   -30.37695     0.00011     0.00010     0.00010
  n-local    81.91867    83.36744    77.38110     2.38415    -1.40037     0.59091
  augment   -12.51371   -12.51371   -12.51370    -0.00009    -0.00009    -0.00009
  Kinetic    59.60864    56.58249    55.99012     3.59079    -0.55527     1.01916
  Fock        0.00000     0.00000     0.00000     0.00000     0.00000     0.00000
  -------------------------------------------------------------------------------------
  Total      -0.00178    -0.00178    -0.00178     0.00000     0.00000     0.00000
  in kB      -0.07240    -0.07240    -0.07240     0.00000     0.00000     0.00000
  external pressure =       -0.07 kB  Pullay stress =        0.00 kB


 VOLUME and BASIS-vectors are now :
 -----------------------------------------------------------------------------
  energy-cutoff  :      240.00
  volume of cell :       39.34
      direct lattice vectors                 reciprocal lattice vectors
     0.000000000  2.699502433  2.699502433    -0.185219318  0.185219318  0.185219318
     2.699502433  0.000000000  2.699502433     0.185219318 -0.185219318  0.185219318
     2.699502433  2.699502433  0.000000000     0.185219318  0.185219318 -0.185219318

  length of vectors
     3.817672953  3.817672953  3.817672953     0.320809270  0.320809270  0.320809270


 FORCES acting on ions
    electron-ion (+dipol)            ewald-force                    non-local-force                 convergence-correction
 -----------------------------------------------------------------------------------------------
   -.182E-06 -.182E-06 0.798E-05   -.195E-15 -.154E-14 -.224E-14   0.312E-15 0.160E-15 0.250E-15   -.194E-05 -.194E-05 -.194E-05
   0.182E-06 0.182E-06 -.798E-05   0.623E-16 0.159E-14 0.286E-14   -.232E-15 -.170E-15 -.236E-15   0.194E-05 0.194E-05 0.194E-05
 -----------------------------------------------------------------------------------------------
   0.933E-13 -.367E-13 -.341E-14   -.133E-15 0.497E-16 0.622E-15   0.798E-16 -.104E-16 0.139E-16   -.267E-15 -.838E-15 -.534E-15
 
 
 POSITION                                       TOTAL-FORCE (eV/Angst)
 -----------------------------------------------------------------------------------
      4.72413      4.72413      4.72413        -0.000000     -0.000000     -0.000000
      0.67488      0.67488      0.67488         0.000000      0.000000      0.000000
 -----------------------------------------------------------------------------------
    total drift:                                0.000000     -0.000000     -0.000000


--------------------------------------------------------------------------------------------------------



  FREE ENERGIE OF THE ION-ELECTRON SYSTEM (eV)
  ---------------------------------------------------
  free  energy   TOTEN  =       -11.89039296 eV

  energy  without entropy=      -11.89039130  energy(sigma->0) =      -11.89039213
 


--------------------------------------------------------------------------------------------------------


    POTLOK:  cpu time    0.01: real time    0.01


--------------------------------------------------------------------------------------------------------


 writing wavefunctions
     LOOP+:  cpu time    2.91: real time    3.07
    4ORBIT:  cpu time    0.00: real time    0.00

 total amount of memory used by VASP on root node    35781. kBytes
========================================================================

   base      :      30000. kBytes
   nonl-proj :       1222. kBytes
   fftplans  :        800. kBytes
   grid      :       1216. kBytes
   one-center:          6. kBytes
   wavefun   :       2537. kBytes
 
  
  
 General timing and accounting informations for this job:
 ========================================================
  
                  Total CPU time used (sec):        3.080
                            User time (sec):        3.061
                          System time (sec):        0.019
                         Elapsed time (sec):        3.257
  
                   Maximum memory used (kb):       36340.
                   Average memory used (kb):           0.
  
                          Minor page faults:         5160
                          Major page faults:            0
                 Voluntary context switches:          263
