fcc Si                                  
   4.70000000000000     
     0.445088    0.445088    0.000000
     0.000000    0.445088    0.445088
     0.445088    0.000000    0.445088
   Si
     1
Direct
  0.000000  0.000000  0.000000
 
   24   24   24
 -.30675874238E+01 -.22612845810E+01 -.12909931468E+00 0.25971225485E+01 0.50578129976E+01
 0.66106888118E+01 0.70429411798E+01 0.65746980645E+01 0.56863513970E+01 0.48336433487E+01
 0.41800097935E+01 0.37767207619E+01 0.36412509065E+01 0.37767207619E+01 0.41800097935E+01
 0.48336433487E+01 0.56863513970E+01 0.65746980645E+01 0.70429411798E+01 0.66106888118E+01
 0.50578129976E+01 0.25971225485E+01 -.12909931468E+00 -.22612845810E+01 -.22612845810E+01
 -.79428600037E+00 0.16188504575E+01 0.41681293042E+01 0.60969184439E+01 0.69866853839E+01
 0.68622794608E+01 0.60982274198E+01 0.51933189517E+01 0.44384688554E+01 0.39124948577E+01
 0.36456310753E+01 0.36456178773E+01 0.39124663125E+01 0.44384494102E+01 0.51933290744E+01
 0.60982666970E+01 0.68623331549E+01 0.69867408422E+01 0.60969684845E+01 0.41681616290E+01
 0.16188503353E+01 -.79430814197E+00 -.22612974954E+01 -.12909931468E+00 0.16188504575E+01
 0.38195421346E+01 0.57400830443E+01 0.68467315963E+01 0.69872910589E+01 0.63870030485E+01
 0.54879630376E+01 0.46656344805E+01 0.40406859206E+01 0.36570178723E+01 0.35284346831E+01
 0.36569869363E+01 0.40406378194E+01 0.46655976374E+01 0.54879701287E+01 0.63870662030E+01
 0.69873873726E+01 0.68468219325E+01 0.57401485185E+01 0.38195948688E+01 0.16189019477E+01
 -.12906197866E+00 -.79430814197E+00 0.25971225485E+01 0.41681293042E+01 0.57400830443E+01
 0.67785265358E+01 0.70210904931E+01 0.65480994728E+01 0.56953545408E+01 0.48419240643E+01
 0.41486294215E+01 0.36712353255E+01 0.34305910238E+01 0.34305776431E+01 0.36711928251E+01
 0.41485649985E+01 0.48418698343E+01 0.56953539838E+01 0.65481650831E+01 0.70211910636E+01
 0.67786262550E+01 0.57401834717E+01 0.41682497883E+01 0.25972406066E+01 0.16189019477E+01
 0.16188503353E+01 0.50578129976E+01 0.60969184439E+01 0.68467315963E+01 0.70210904931E+01
 0.65985005337E+01 0.58015691103E+01 0.49530721348E+01 0.42259561122E+01 0.36839152320E+01
 0.33548136655E+01 0.32450953138E+01 0.33548019080E+01 0.36838824138E+01 0.42259052950E+01
 0.49530291273E+01 0.58015640214E+01 0.65985448899E+01 0.70211760342E+01 0.68468493334E+01
 0.60970583601E+01 0.50579493073E+01 0.41682497883E+01 0.38195948688E+01 0.41681616290E+01
 0.66106888118E+01 0.69866853839E+01 0.69872910589E+01 0.65480994728E+01 0.58015691103E+01
 0.49909716717E+01 0.42660832044E+01 0.36922063928E+01 0.33028194933E+01 0.31080435685E+01
 0.31080567894E+01 0.33028476756E+01 0.36922252897E+01 0.42660789534E+01 0.49909531864E+01
 0.58015599597E+01 0.65481220505E+01 0.69873533376E+01 0.69867821186E+01 0.66107996196E+01
 0.60970583601E+01 0.57401834717E+01 0.57401485185E+01 0.60969684845E+01 0.70429411798E+01
 0.68622794608E+01 0.63870030485E+01 0.56953545408E+01 0.49530721348E+01 0.42660832044E+01
 0.36950282091E+01 0.32762279640E+01 0.30240151463E+01 0.29402216390E+01 0.30240700624E+01
 0.32763093384E+01 0.36950979503E+01 0.42661172321E+01 0.49530754675E+01 0.56953478362E+01
 0.63870078752E+01 0.68623021877E+01 0.70429780742E+01 0.69867821186E+01 0.68468493334E+01
 0.67786262550E+01 0.68468219325E+01 0.69867408422E+01 0.65746980645E+01 0.60982274198E+01
 0.54879630376E+01 0.48419240643E+01 0.42259561122E+01 0.36922063928E+01 0.32762279640E+01
 0.29956955123E+01 0.28555450450E+01 0.28555681167E+01 0.29957566654E+01 0.32763049833E+01
 0.36922767816E+01 0.42260048550E+01 0.48419522881E+01 0.54879763026E+01 0.60982284522E+01
 0.65746848021E+01 0.68623021877E+01 0.69873533376E+01 0.70211760342E+01 0.70211910636E+01
 0.69873873726E+01 0.68623331549E+01 0.56863513970E+01 0.51933189517E+01 0.46656344805E+01
 0.41486294215E+01 0.36839152320E+01 0.33028194933E+01 0.30240151463E+01 0.28555450450E+01
 0.27993539755E+01 0.28555329548E+01 0.30240050475E+01 0.33028282396E+01 0.36839516784E+01
 0.41486875444E+01 0.46656964929E+01 0.51933625611E+01 0.56863543428E+01 0.60982284522E+01
 0.63870078752E+01 0.65481220505E+01 0.65985448899E+01 0.65481650831E+01 0.63870662030E+01
 0.60982666970E+01 0.48336433487E+01 0.44384688554E+01 0.40406859206E+01 0.36712353255E+01
 0.33548136655E+01 0.31080435685E+01 0.29402216390E+01 0.28555681167E+01 0.28555329548E+01
 0.29401341371E+01 0.31079476971E+01 0.33547534129E+01 0.36712336529E+01 0.40407358039E+01
 0.44385402112E+01 0.48337050966E+01 0.51933625611E+01 0.54879763026E+01 0.56953478362E+01
 0.58015599597E+01 0.58015640214E+01 0.56953539838E+01 0.54879701287E+01 0.51933290744E+01
 0.41800097935E+01 0.39124948577E+01 0.36570178723E+01 0.34305910238E+01 0.32450953138E+01
 0.31080567894E+01 0.30240700624E+01 0.29957566654E+01 0.30240050475E+01 0.31079476971E+01
 0.32449760817E+01 0.34304951404E+01 0.36569690898E+01 0.39125028919E+01 0.41800680098E+01
 0.44385402112E+01 0.46656964929E+01 0.48419522881E+01 0.49530754675E+01 0.49909531864E+01
 0.49530291273E+01 0.48418698343E+01 0.46655976374E+01 0.44384494102E+01 0.37767207619E+01
 0.36456310753E+01 0.35284346831E+01 0.34305776431E+01 0.33548019080E+01 0.33028476756E+01
 0.32763093384E+01 0.32763049833E+01 0.33028282396E+01 0.33547534129E+01 0.34304951404E+01
 0.35283333816E+01 0.36455443899E+01 0.37766861490E+01 0.39125028919E+01 0.40407358039E+01
 0.41486875444E+01 0.42260048550E+01 0.42661172321E+01 0.42660789534E+01 0.42259052950E+01
 0.41485649985E+01 0.40406378194E+01 0.39124663125E+01 0.36412509065E+01 0.36456178773E+01
 0.36569869363E+01 0.36711928251E+01 0.36838824138E+01 0.36922252897E+01 0.36950979503E+01
 0.36922767816E+01 0.36839516784E+01 0.36712336529E+01 0.36569690898E+01 0.36455443899E+01
 0.36411545894E+01 0.36455443899E+01 0.36569690898E+01 0.36712336529E+01 0.36839516784E+01
 0.36922767816E+01 0.36950979503E+01 0.36922252897E+01 0.36838824138E+01 0.36711928251E+01
 0.36569869363E+01 0.36456178773E+01 0.37767207619E+01 0.39124663125E+01 0.40406378194E+01
 0.41485649985E+01 0.42259052950E+01 0.42660789534E+01 0.42661172321E+01 0.42260048550E+01
 0.41486875444E+01 0.40407358039E+01 0.39125028919E+01 0.37766861490E+01 0.36455443899E+01
 0.35283333816E+01 0.34304951404E+01 0.33547534129E+01 0.33028282396E+01 0.32763049833E+01
 0.32763093384E+01 0.33028476756E+01 0.33548019080E+01 0.34305776431E+01 0.35284346831E+01
 0.36456310753E+01 0.41800097935E+01 0.44384494102E+01 0.46655976374E+01 0.48418698343E+01
 0.49530291273E+01 0.49909531864E+01 0.49530754675E+01 0.48419522881E+01 0.46656964929E+01
 0.44385402112E+01 0.41800680098E+01 0.39125028919E+01 0.36569690898E+01 0.34304951404E+01
 0.32449760817E+01 0.31079476971E+01 0.30240050475E+01 0.29957566654E+01 0.30240700624E+01
 0.31080567894E+01 0.32450953138E+01 0.34305910238E+01 0.36570178723E+01 0.39124948577E+01
 0.48336433487E+01 0.51933290744E+01 0.54879701287E+01 0.56953539838E+01 0.58015640214E+01
 0.58015599597E+01 0.56953478362E+01 0.54879763026E+01 0.51933625611E+01 0.48337050966E+01
 0.44385402112E+01 0.40407358039E+01 0.36712336529E+01 0.33547534129E+01 0.31079476971E+01
 0.29401341371E+01 0.28555329548E+01 0.28555681167E+01 0.29402216390E+01 0.31080435685E+01
 0.33548136655E+01 0.36712353255E+01 0.40406859206E+01 0.44384688554E+01 0.56863513970E+01
 0.60982666970E+01 0.63870662030E+01 0.65481650831E+01 0.65985448899E+01 0.65481220505E+01
 0.63870078752E+01 0.60982284522E+01 0.56863543428E+01 0.51933625611E+01 0.46656964929E+01
 0.41486875444E+01 0.36839516784E+01 0.33028282396E+01 0.30240050475E+01 0.28555329548E+01
 0.27993539755E+01 0.28555450450E+01 0.30240151463E+01 0.33028194933E+01 0.36839152320E+01
 0.41486294215E+01 0.46656344805E+01 0.51933189517E+01 0.65746980645E+01 0.68623331549E+01
 0.69873873726E+01 0.70211910636E+01 0.70211760342E+01 0.69873533376E+01 0.68623021877E+01
 0.65746848021E+01 0.60982284522E+01 0.54879763026E+01 0.48419522881E+01 0.42260048550E+01
 0.36922767816E+01 0.32763049833E+01 0.29957566654E+01 0.28555681167E+01 0.28555450450E+01
 0.29956955123E+01 0.32762279640E+01 0.36922063928E+01 0.42259561122E+01 0.48419240643E+01
 0.54879630376E+01 0.60982274198E+01 0.70429411798E+01 0.69867408422E+01 0.68468219325E+01
 0.67786262550E+01 0.68468493334E+01 0.69867821186E+01 0.70429780742E+01 0.68623021877E+01
 0.63870078752E+01 0.56953478362E+01 0.49530754675E+01 0.42661172321E+01 0.36950979503E+01
 0.32763093384E+01 0.30240700624E+01 0.29402216390E+01 0.30240151463E+01 0.32762279640E+01
 0.36950282091E+01 0.42660832044E+01 0.49530721348E+01 0.56953545408E+01 0.63870030485E+01
 0.68622794608E+01 0.66106888118E+01 0.60969684845E+01 0.57401485185E+01 0.57401834717E+01
 0.60970583601E+01 0.66107996196E+01 0.69867821186E+01 0.69873533376E+01 0.65481220505E+01
 0.58015599597E+01 0.49909531864E+01 0.42660789534E+01 0.36922252897E+01 0.33028476756E+01
 0.31080567894E+01 0.31080435685E+01 0.33028194933E+01 0.36922063928E+01 0.42660832044E+01
 0.49909716717E+01 0.58015691103E+01 0.65480994728E+01 0.69872910589E+01 0.69866853839E+01
 0.50578129976E+01 0.41681616290E+01 0.38195948688E+01 0.41682497883E+01 0.50579493073E+01
 0.60970583601E+01 0.68468493334E+01 0.70211760342E+01 0.65985448899E+01 0.58015640214E+01
 0.49530291273E+01 0.42259052950E+01 0.36838824138E+01 0.33548019080E+01 0.32450953138E+01
 0.33548136655E+01 0.36839152320E+01 0.42259561122E+01 0.49530721348E+01 0.58015691103E+01
 0.65985005337E+01 0.70210904931E+01 0.68467315963E+01 0.60969184439E+01 0.25971225485E+01
 0.16188503353E+01 0.16189019477E+01 0.25972406066E+01 0.41682497883E+01 0.57401834717E+01
 0.67786262550E+01 0.70211910636E+01 0.65481650831E+01 0.56953539838E+01 0.48418698343E+01
 0.41485649985E+01 0.36711928251E+01 0.34305776431E+01 0.34305910238E+01 0.36712353255E+01
 0.41486294215E+01 0.48419240643E+01 0.56953545408E+01 0.65480994728E+01 0.70210904931E+01
 0.67785265358E+01 0.57400830443E+01 0.41681293042E+01 -.12909931468E+00 -.79430814197E+00
 -.12906197866E+00 0.16189019477E+01 0.38195948688E+01 0.57401485185E+01 0.68468219325E+01
 0.69873873726E+01 0.63870662030E+01 0.54879701287E+01 0.46655976374E+01 0.40406378194E+01
 0.36569869363E+01 0.35284346831E+01 0.36570178723E+01 0.40406859206E+01 0.46656344805E+01
 0.54879630376E+01 0.63870030485E+01 0.69872910589E+01 0.68467315963E+01 0.57400830443E+01
 0.38195421346E+01 0.16188504575E+01 -.22612845810E+01 -.22612974954E+01 -.79430814197E+00
 0.16188503353E+01 0.41681616290E+01 0.60969684845E+01 0.69867408422E+01 0.68623331549E+01
 0.60982666970E+01 0.51933290744E+01 0.44384494102E+01 0.39124663125E+01 0.36456178773E+01
 0.36456310753E+01 0.39124948577E+01 0.44384688554E+01 0.51933189517E+01 0.60982274198E+01
 0.68622794608E+01 0.69866853839E+01 0.60969184439E+01 0.41681293042E+01 0.16188504575E+01
 -.79428600037E+00 -.22613158414E+01 -.79426161469E+00 0.16188970230E+01 0.41681524559E+01
 0.60969143611E+01 0.69866895731E+01 0.68623119036E+01 0.60982639658E+01 0.51933287514E+01
 0.44384579287E+01 0.39124904271E+01 0.36456381382E+01 0.36456196497E+01 0.39124610968E+01
 0.44384558758E+01 0.51933505347E+01 0.60982778654E+01 0.68623157419E+01 0.69867124274E+01
 0.60969578490E+01 0.41681656295E+01 0.16188346915E+01 -.79436329617E+00 -.22613655845E+01
 -.79426161469E+00 0.10790181024E+01 0.34501217031E+01 0.55443647505E+01 0.67928281643E+01
 0.70242941120E+01 0.64631732763E+01 0.55647387594E+01 0.47313863223E+01 0.40963652432E+01
 0.37059325259E+01 0.35749903339E+01 0.37058999372E+01 0.40963295339E+01 0.47313728590E+01
 0.55647486532E+01 0.64632000391E+01 0.70243461529E+01 0.67929059282E+01 0.55444278184E+01
 0.34501085113E+01 0.10789224570E+01 -.79435593917E+00 -.15056822721E+01 0.16188970230E+01
 0.34501217031E+01 0.53211947270E+01 0.66280849185E+01 0.70608746842E+01 0.66846142499E+01
 0.58492231174E+01 0.49751402298E+01 0.42603087945E+01 0.37663674636E+01 0.35169168263E+01
 0.35168958597E+01 0.37663177588E+01 0.42602566546E+01 0.49751030794E+01 0.58492110621E+01
 0.66846396563E+01 0.70609444796E+01 0.66281777695E+01 0.53212646483E+01 0.34501383801E+01
 0.16188746315E+01 0.48872970432E+00 0.48874562014E+00 0.41681524559E+01 0.55443647505E+01
 0.66280849185E+01 0.70603052278E+01 0.67833972888E+01 0.60244079716E+01 0.51491102691E+01
 0.43889239470E+01 0.38190975692E+01 0.34720789248E+01 0.33562154205E+01 0.34720356500E+01
 0.38190411268E+01 0.43888737961E+01 0.51490612547E+01 0.60243643713E+01 0.67833898076E+01
 0.70603616812E+01 0.66281946710E+01 0.55444859426E+01 0.41682479577E+01 0.30269379445E+01
 0.25850441369E+01 0.30268873295E+01 0.60969143611E+01 0.67928281643E+01 0.70608746842E+01
 0.67833972888E+01 0.60828813647E+01 0.52394657472E+01 0.44706026194E+01 0.38575027671E+01
 0.34399231477E+01 0.32306689550E+01 0.32306617599E+01 0.34399091243E+01 0.38574879134E+01
 0.44705749535E+01 0.52394095969E+01 0.60828140205E+01 0.67833690610E+01 0.70609262900E+01
 0.67929514977E+01 0.60970558238E+01 0.52947631618E+01 0.47665156504E+01 0.47664776246E+01
 0.52946580075E+01 0.69866895731E+01 0.70242941120E+01 0.66846142499E+01 0.60244079716E+01
 0.52394657472E+01 0.44985579883E+01 0.38775514529E+01 0.34202940758E+01 0.31445096564E+01
 0.30528470067E+01 0.31445488739E+01 0.34203500820E+01 0.38775919129E+01 0.44985585649E+01
 0.52394242102E+01 0.60243502677E+01 0.66845833198E+01 0.70243192030E+01 0.69867669331E+01
 0.66884248705E+01 0.63592528750E+01 0.62195024407E+01 0.63591933074E+01 0.66883336594E+01
 0.68623119036E+01 0.64631732763E+01 0.58492231174E+01 0.51491102691E+01 0.44706026194E+01
 0.38775514529E+01 0.34136511726E+01 0.31006271539E+01 0.29443600889E+01 0.29443915401E+01
 0.31007071079E+01 0.34137465287E+01 0.38776273700E+01 0.44706388816E+01 0.51491043108E+01
 0.58491855652E+01 0.64631289501E+01 0.68622863997E+01 0.70162891307E+01 0.70024522866E+01
 0.69484801340E+01 0.69484662193E+01 0.70024262508E+01 0.70162825827E+01 0.60982639658E+01
 0.55647387594E+01 0.49751402298E+01 0.43889239470E+01 0.38575027671E+01 0.34202940758E+01
 0.31006271539E+01 0.29079345425E+01 0.28438074040E+01 0.29079638982E+01 0.31006812545E+01
 0.34203640842E+01 0.38575765836E+01 0.43889838227E+01 0.49751701946E+01 0.55647276541E+01
 0.60982194822E+01 0.65001001495E+01 0.67415008107E+01 0.68524349805E+01 0.68818271422E+01
 0.68524578164E+01 0.67415451510E+01 0.65001545855E+01 0.51933287514E+01 0.47313863223E+01
 0.42603087945E+01 0.38190975692E+01 0.34399231477E+01 0.31445096564E+01 0.29443600889E+01
 0.28438074040E+01 0.28437933355E+01 0.29443255758E+01 0.31444770823E+01 0.34399195636E+01
 0.38191388324E+01 0.42603816831E+01 0.47314561436E+01 0.51933610143E+01 0.56068588637E+01
 0.59372813162E+01 0.61572896955E+01 0.62637256537E+01 0.62637471368E+01 0.61573421283E+01
 0.59373344111E+01 0.56068783965E+01 0.44384579287E+01 0.40963652432E+01 0.37663674636E+01
 0.34720789248E+01 0.32306689550E+01 0.30528470067E+01 0.29443915401E+01 0.29079638982E+01
 0.29443255758E+01 0.30527381897E+01 0.32305598017E+01 0.34720151405E+01 0.37663744553E+01
 0.40964303376E+01 0.44385408122E+01 0.47650191426E+01 0.50483946339E+01 0.52658389535E+01
 0.54017829856E+01 0.54479277198E+01 0.54017827845E+01 0.52658294266E+01 0.50483616091E+01
 0.47649545621E+01 0.39124904271E+01 0.37059325259E+01 0.35169168263E+01 0.33562154205E+01
 0.32306617599E+01 0.31445488739E+01 0.31007071079E+01 0.31006812545E+01 0.31444770823E+01
 0.32305598017E+01 0.33561070054E+01 0.35168276920E+01 0.37058869651E+01 0.39125030505E+01
 0.41215701284E+01 0.43152697045E+01 0.44762467340E+01 0.45907089834E+01 0.46499125553E+01
 0.46498851356E+01 0.45906337293E+01 0.44761438959E+01 0.43151687437E+01 0.41215027263E+01
 0.36456381382E+01 0.35749903339E+01 0.35168958597E+01 0.34720356500E+01 0.34399091243E+01
 0.34203500820E+01 0.34137465287E+01 0.34203640842E+01 0.34399195636E+01 0.34720151405E+01
 0.35168276920E+01 0.35748874265E+01 0.36455444832E+01 0.37251400878E+01 0.38065156830E+01
 0.38805710159E+01 0.39389052080E+01 0.39757600531E+01 0.39882814914E+01 0.39756962371E+01
 0.39388016303E+01 0.38804726665E+01 0.38064721358E+01 0.37251747605E+01 0.36456196497E+01
 0.37058999372E+01 0.37663177588E+01 0.38190411268E+01 0.38574879134E+01 0.38775919129E+01
 0.38776273700E+01 0.38575765836E+01 0.38191388324E+01 0.37663744553E+01 0.37058869651E+01
 0.36455444832E+01 0.35920489728E+01 0.35489169275E+01 0.35163200578E+01 0.34927423533E+01
 0.34769679209E+01 0.34688787564E+01 0.34688627975E+01 0.34769342606E+01 0.34927243682E+01
 0.35163476413E+01 0.35489939749E+01 0.35921481434E+01 0.39124610968E+01 0.40963295339E+01
 0.42602566546E+01 0.43888737961E+01 0.44705749535E+01 0.44985585649E+01 0.44706388816E+01
 0.43889838227E+01 0.42603816831E+01 0.40964303376E+01 0.39125030505E+01 0.37251400878E+01
 0.35489169275E+01 0.33944629065E+01 0.32684967495E+01 0.31752489043E+01 0.31178005710E+01
 0.30983748269E+01 0.31178301356E+01 0.31753145075E+01 0.32685974713E+01 0.33945773459E+01
 0.35490080423E+01 0.37251715829E+01 0.44384558758E+01 0.47313728590E+01 0.49751030794E+01
 0.51490612547E+01 0.52394095969E+01 0.52394242102E+01 0.51491043108E+01 0.49751701946E+01
 0.47314561436E+01 0.44385408122E+01 0.41215701284E+01 0.38065156830E+01 0.35163200578E+01
 0.32684967495E+01 0.30748035498E+01 0.29423960855E+01 0.28752946590E+01 0.28753308597E+01
 0.29424920858E+01 0.30749249472E+01 0.32685999892E+01 0.35163706365E+01 0.38065020100E+01
 0.41215071945E+01 0.51933505347E+01 0.55647486532E+01 0.58492110621E+01 0.60243643713E+01
 0.60828140205E+01 0.60243502677E+01 0.58491855652E+01 0.55647276541E+01 0.51933610143E+01
 0.47650191426E+01 0.43152697045E+01 0.38805710159E+01 0.34927423533E+01 0.31752489043E+01
 0.29423960855E+01 0.28011084286E+01 0.27538633854E+01 0.28011626233E+01 0.29424726154E+01
 0.31753012689E+01 0.34927373589E+01 0.38805101487E+01 0.43151907869E+01 0.47649649764E+01
 0.60982778654E+01 0.64632000391E+01 0.66846396563E+01 0.67833898076E+01 0.67833690610E+01
 0.66845833198E+01 0.64631289501E+01 0.60982194822E+01 0.56068588637E+01 0.50483946339E+01
 0.44762467340E+01 0.39389052080E+01 0.34769679209E+01 0.31178005710E+01 0.28752946590E+01
 0.27538633854E+01 0.27538640891E+01 0.28752896174E+01 0.31177757449E+01 0.34769152960E+01
 0.39388338727E+01 0.44761820748E+01 0.50483630459E+01 0.56068770278E+01 0.68623157419E+01
 0.70243461529E+01 0.70609444796E+01 0.70603616812E+01 0.70609262900E+01 0.70243192030E+01
 0.68622863997E+01 0.65001001495E+01 0.59372813162E+01 0.52658389535E+01 0.45907089834E+01
 0.39757600531E+01 0.34688787564E+01 0.30983748269E+01 0.28753308597E+01 0.28011626233E+01
 0.28752896174E+01 0.30983000598E+01 0.34687911396E+01 0.39756911574E+01 0.45906826837E+01
 0.52658542312E+01 0.59373173645E+01 0.65001337188E+01 0.69867124274E+01 0.67929059282E+01
 0.66281777695E+01 0.66281946710E+01 0.67929514977E+01 0.69867669331E+01 0.70162891307E+01
 0.67415008107E+01 0.61572896955E+01 0.54017829856E+01 0.46499125553E+01 0.39882814914E+01
 0.34688627975E+01 0.31178301356E+01 0.29424920858E+01 0.29424726154E+01 0.31177757449E+01
 0.34687911396E+01 0.39882298656E+01 0.46499122535E+01 0.54018299101E+01 0.61573413717E+01
 0.67415146055E+01 0.70162577497E+01 0.60969578490E+01 0.55444278184E+01 0.53212646483E+01
 0.55444859426E+01 0.60970558238E+01 0.66884248705E+01 0.70024522866E+01 0.68524349805E+01
 0.62637256537E+01 0.54479277198E+01 0.46498851356E+01 0.39756962371E+01 0.34769342606E+01
 0.31753145075E+01 0.30749249472E+01 0.31753012689E+01 0.34769152960E+01 0.39756911574E+01
 0.46499122535E+01 0.54479802343E+01 0.62637656443E+01 0.68524244012E+01 0.70023827814E+01
 0.66883209219E+01 0.41681656295E+01 0.34501085113E+01 0.34501383801E+01 0.41682479577E+01
 0.52947631618E+01 0.63592528750E+01 0.69484801340E+01 0.68818271422E+01 0.62637471368E+01
 0.54017827845E+01 0.45906337293E+01 0.39388016303E+01 0.34927243682E+01 0.32685974713E+01
 0.32685999892E+01 0.34927373589E+01 0.39388338727E+01 0.45906826837E+01 0.54018299101E+01
 0.62637656443E+01 0.68817974440E+01 0.69483996928E+01 0.63591399208E+01 0.52946499243E+01
 0.16188346915E+01 0.10789224570E+01 0.16188746315E+01 0.30269379445E+01 0.47665156504E+01
 0.62195024407E+01 0.69484662193E+01 0.68524578164E+01 0.61573421283E+01 0.52658294266E+01
 0.44761438959E+01 0.38804726665E+01 0.35163476413E+01 0.33945773459E+01 0.35163706365E+01
 0.38805101487E+01 0.44761820748E+01 0.52658542312E+01 0.61573413717E+01 0.68524244012E+01
 0.69483996928E+01 0.62194140676E+01 0.47664243168E+01 0.30268642068E+01 -.79436329617E+00
 -.79435593917E+00 0.48872970432E+00 0.25850441369E+01 0.47664776246E+01 0.63591933074E+01
 0.70024262508E+01 0.67415451510E+01 0.59373344111E+01 0.50483616091E+01 0.43151687437E+01
 0.38064721358E+01 0.35489939749E+01 0.35490080423E+01 0.38065020100E+01 0.43151907869E+01
 0.50483630459E+01 0.59373173645E+01 0.67415146055E+01 0.70023827814E+01 0.63591399208E+01
 0.47664243168E+01 0.25850024290E+01 0.48870573150E+00 -.22613655845E+01 -.15056822721E+01
 0.48874562014E+00 0.30268873295E+01 0.52946580075E+01 0.66883336594E+01 0.70162825827E+01
 0.65001545855E+01 0.56068783965E+01 0.47649545621E+01 0.41215027263E+01 0.37251747605E+01
 0.35921481434E+01 0.37251715829E+01 0.41215071945E+01 0.47649649764E+01 0.56068770278E+01
 0.65001337188E+01 0.70162577497E+01 0.66883209219E+01 0.52946499243E+01 0.30268642068E+01
 0.48870573150E+00 -.15057149631E+01 -.12914779643E+00 0.16188331682E+01 0.38195522658E+01
 0.57400949728E+01 0.68467325370E+01 0.69872948227E+01 0.63870240633E+01 0.54879914177E+01
 0.46656499503E+01 0.40406863204E+01 0.36570174509E+01 0.35284394931E+01 0.36569896811E+01
 0.40406367830E+01 0.46656032205E+01 0.54879868966E+01 0.63870816729E+01 0.69873875536E+01
 0.68468104155E+01 0.57401408202E+01 0.38195958095E+01 0.16188961500E+01 -.12909326441E+00
 -.79436196212E+00 0.16188331682E+01 0.34501005952E+01 0.53212103770E+01 0.66280942579E+01
 0.70608576911E+01 0.66845980288E+01 0.58492375479E+01 0.49751741760E+01 0.42603298497E+01
 0.37663680054E+01 0.35169156097E+01 0.35169023469E+01 0.37663213890E+01 0.42602528241E+01
 0.49751063310E+01 0.58492323855E+01 0.66846656866E+01 0.70609528288E+01 0.66281673670E+01
 0.53212579243E+01 0.34501498366E+01 0.16188854894E+01 0.48870546563E+00 0.48868145712E+00
 0.38195522658E+01 0.53212103770E+01 0.65300542561E+01 0.70603341285E+01 0.68409187228E+01
 0.60999391912E+01 0.52169882523E+01 0.44455654681E+01 0.38661191775E+01 0.35128472350E+01
 0.33948458694E+01 0.35128109798E+01 0.38660456455E+01 0.44454703493E+01 0.52169070003E+01
 0.60999042634E+01 0.68409342732E+01 0.70603832112E+01 0.65301207807E+01 0.53212889325E+01
 0.38196333863E+01 0.25850320439E+01 0.21086033658E+01 0.25849781904E+01 0.57400949728E+01
 0.66280942579E+01 0.70603341285E+01 0.68877333810E+01 0.62256308159E+01 0.53704966240E+01
 0.45791740502E+01 0.39454935631E+01 0.35129104036E+01 0.32959007267E+01 0.32958890152E+01
 0.35128755660E+01 0.39454326143E+01 0.45790843887E+01 0.53703883918E+01 0.62255345638E+01
 0.68876820121E+01 0.70603464130E+01 0.66281678797E+01 0.57402052732E+01 0.47665267523E+01
 0.41369920213E+01 0.41369499062E+01 0.47664241642E+01 0.68467325370E+01 0.70608576911E+01
 0.68409187228E+01 0.62256308159E+01 0.54230728274E+01 0.46490438821E+01 0.39962799655E+01
 0.35141211807E+01 0.32229198229E+01 0.31260858504E+01 0.32229431140E+01 0.35141413407E+01
 0.39962594930E+01 0.46489616321E+01 0.54229434303E+01 0.62255026621E+01 0.68408427754E+01
 0.70608580878E+01 0.68467962173E+01 0.63592407272E+01 0.58845341544E+01 0.56901420642E+01
 0.58844771009E+01 0.63591568315E+01 0.69872948227E+01 0.66845980288E+01 0.60999391912E+01
 0.53704966240E+01 0.46490438821E+01 0.40137180208E+01 0.35149509173E+01 0.31780072671E+01
 0.30098021482E+01 0.30098363523E+01 0.31780868228E+01 0.35150248794E+01 0.40137384487E+01
 0.46489930333E+01 0.53703919880E+01 0.60998257884E+01 0.66845208457E+01 0.69872676100E+01
 0.70023976301E+01 0.68527991937E+01 0.67151746307E+01 0.67151694173E+01 0.68527857652E+01
 0.70023908774E+01 0.63870240633E+01 0.58492375479E+01 0.52169882523E+01 0.45791740502E+01
 0.39962799655E+01 0.35149509173E+01 0.31628194678E+01 0.29507762092E+01 0.28802912319E+01
 0.29508312305E+01 0.31629122889E+01 0.35150474626E+01 0.39963400365E+01 0.45791721470E+01
 0.52169301677E+01 0.58491509957E+01 0.63869434951E+01 0.67414448162E+01 0.69073836495E+01
 0.69510710663E+01 0.69537553892E+01 0.69510881870E+01 0.69074203576E+01 0.67415042030E+01
 0.54879914177E+01 0.49751741760E+01 0.44455654681E+01 0.39454935631E+01 0.35141211807E+01
 0.31780072671E+01 0.29507762092E+01 0.28369124048E+01 0.28369169781E+01 0.29507980243E+01
 0.31780574803E+01 0.35141914304E+01 0.39455566665E+01 0.44455946818E+01 0.49751640573E+01
 0.54879507418E+01 0.59372494076E+01 0.62727616523E+01 0.64767079463E+01 0.65675793694E+01
 0.65675920439E+01 0.64767442448E+01 0.62728129305E+01 0.59373042303E+01 0.46656499503E+01
 0.42603298497E+01 0.38661191775E+01 0.35129104036E+01 0.32229198229E+01 0.30098021482E+01
 0.28802912319E+01 0.28369169781E+01 0.28802517764E+01 0.30097470602E+01 0.32228822594E+01
 0.35129117361E+01 0.38661575663E+01 0.42603828269E+01 0.46656937675E+01 0.50483859439E+01
 0.53766137712E+01 0.56255171375E+01 0.57785634089E+01 0.58295960569E+01 0.57785725116E+01
 0.56255270549E+01 0.53766120869E+01 0.50483629588E+01 0.40406863204E+01 0.37663680054E+01
 0.35128472350E+01 0.32959007267E+01 0.31260858504E+01 0.30098363523E+01 0.29508312305E+01
 0.29507980243E+01 0.30097470602E+01 0.31259701363E+01 0.32957997907E+01 0.35127946328E+01
 0.37663737915E+01 0.40407354647E+01 0.43152686571E+01 0.45670386459E+01 0.47746005045E+01
 0.49213748170E+01 0.49970576730E+01 0.49970369563E+01 0.49213199281E+01 0.47745285474E+01
 0.45669633675E+01 0.43151990998E+01 0.36570174509E+01 0.35169156097E+01 0.33948458694E+01
 0.32958890152E+01 0.32229431140E+01 0.31780868228E+01 0.31629122889E+01 0.31780574803E+01
 0.32228822594E+01 0.32957997907E+01 0.33947437423E+01 0.35168254221E+01 0.36569668956E+01
 0.38065142202E+01 0.39532786375E+01 0.40835357607E+01 0.41849832182E+01 0.42489182626E+01
 0.42706664750E+01 0.42488446094E+01 0.41848672973E+01 0.40834226777E+01 0.39532076843E+01
 0.38065052616E+01 0.35284394931E+01 0.35169023469E+01 0.35128109798E+01 0.35128755660E+01
 0.35141413407E+01 0.35150248794E+01 0.35150474626E+01 0.35141914304E+01 0.35129117361E+01
 0.35127946328E+01 0.35168254221E+01 0.35283311317E+01 0.35489156272E+01 0.35768902088E+01
 0.36075533837E+01 0.36352090249E+01 0.36553991906E+01 0.36658272028E+01 0.36657960983E+01
 0.36553219356E+01 0.36351260827E+01 0.36075121470E+01 0.35769187706E+01 0.35490050811E+01
 0.36569896811E+01 0.37663213890E+01 0.38660456455E+01 0.39454326143E+01 0.39962594930E+01
 0.40137384487E+01 0.39963400365E+01 0.39455566665E+01 0.38661575663E+01 0.37663737915E+01
 0.36569668956E+01 0.35489156272E+01 0.34508013959E+01 0.33675152253E+01 0.33009858105E+01
 0.32520414142E+01 0.32217689933E+01 0.32114725391E+01 0.32217650672E+01 0.32520486800E+01
 0.33010236153E+01 0.33675895220E+01 0.34508956069E+01 0.35489938894E+01 0.40406367830E+01
 0.42602528241E+01 0.44454703493E+01 0.45790843887E+01 0.46489616321E+01 0.46489930333E+01
 0.45791721470E+01 0.44455946818E+01 0.42603828269E+01 0.40407354647E+01 0.38065142202E+01
 0.35768902088E+01 0.33675152253E+01 0.31894721504E+01 0.30500393784E+01 0.29541445303E+01
 0.29052460900E+01 0.29052715622E+01 0.29542160185E+01 0.30501423879E+01 0.31895815248E+01
 0.33676000876E+01 0.35769212591E+01 0.38064761346E+01 0.46656032205E+01 0.49751063310E+01
 0.52169070003E+01 0.53703883918E+01 0.54229434303E+01 0.53703919880E+01 0.52169301677E+01
 0.49751640573E+01 0.46656937675E+01 0.43152686571E+01 0.39532786375E+01 0.36075533837E+01
 0.33009858105E+01 0.30500393784E+01 0.28651713741E+01 0.27523247799E+01 0.27144413007E+01
 0.27523929964E+01 0.28652763459E+01 0.30501341281E+01 0.33010310954E+01 0.36075322114E+01
 0.39532016798E+01 0.43151675271E+01 0.54879868966E+01 0.58492323855E+01 0.60999042634E+01
 0.62255345638E+01 0.62255026621E+01 0.60998257884E+01 0.58491509957E+01 0.54879507418E+01
 0.50483859439E+01 0.45670386459E+01 0.40835357607E+01 0.36352090249E+01 0.32520414142E+01
 0.29541445303E+01 0.27523247799E+01 0.26508833121E+01 0.26509056052E+01 0.27523752413E+01
 0.29541836409E+01 0.32520327020E+01 0.36351412276E+01 0.40834341131E+01 0.45669503571E+01
 0.50483524983E+01 0.63870816729E+01 0.66846656866E+01 0.68409342732E+01 0.68876820121E+01
 0.68408427754E+01 0.66845208457E+01 0.63869434951E+01 0.59372494076E+01 0.53766137712E+01
 0.47746005045E+01 0.41849832182E+01 0.36553991906E+01 0.32217689933E+01 0.29052460900E+01
 0.27144413007E+01 0.26509056052E+01 0.27144349317E+01 0.29052230750E+01 0.32217178974E+01
 0.36553185353E+01 0.41848924819E+01 0.47745346271E+01 0.53766120869E+01 0.59373293490E+01
 0.69873875536E+01 0.70609528288E+01 0.70603832112E+01 0.70603464130E+01 0.70608580878E+01
 0.69872676100E+01 0.67414448162E+01 0.62727616523E+01 0.56255171375E+01 0.49213748170E+01
 0.42489182626E+01 0.36658272028E+01 0.32114725391E+01 0.29052715622E+01 0.27523929964E+01
 0.27523752413E+01 0.29052230750E+01 0.32114054863E+01 0.36657583356E+01 0.42488672007E+01
 0.49213588208E+01 0.56255483373E+01 0.62728377718E+01 0.67415542559E+01 0.68468104155E+01
 0.66281673670E+01 0.65301207807E+01 0.66281678797E+01 0.68467962173E+01 0.70023976301E+01
 0.69073836495E+01 0.64767079463E+01 0.57785634089E+01 0.49970576730E+01 0.42706664750E+01
 0.36657960983E+01 0.32217650672E+01 0.29542160185E+01 0.28652763459E+01 0.29541836409E+01
 0.32217178974E+01 0.36657583356E+01 0.42706568785E+01 0.49970838253E+01 0.57786221412E+01
 0.64767826889E+01 0.69074528894E+01 0.70024406812E+01 0.57401408202E+01 0.53212579243E+01
 0.53212889325E+01 0.57402052732E+01 0.63592407272E+01 0.68527991937E+01 0.69510710663E+01
 0.65675793694E+01 0.58295960569E+01 0.49970369563E+01 0.42488446094E+01 0.36553219356E+01
 0.32520486800E+01 0.30501423879E+01 0.30501341281E+01 0.32520327020E+01 0.36553185353E+01
 0.42488672007E+01 0.49970838253E+01 0.58296545755E+01 0.65676363166E+01 0.69511115002E+01