       N       E                     dE             d eps       ncg     rms          rms(c)
DAV:   1    -0.377299038310E+01   -0.37730E+01   -0.11134E+03   726   0.274E+02
DAV:   2    -0.526440964278E+01   -0.14914E+01   -0.14105E+01   954   0.244E+01
DAV:   3    -0.527982265127E+01   -0.15413E-01   -0.15411E-01   840   0.245E+00
DAV:   4    -0.527984280407E+01   -0.20153E-04   -0.20152E-04   942   0.859E-02
DAV:   5    -0.527984283062E+01   -0.26554E-07   -0.26576E-07   798   0.238E-03    0.656E-01
DAV:   6    -0.526688181571E+01    0.12961E-01   -0.64782E-03   738   0.430E-01    0.378E-01
DAV:   7    -0.526061359319E+01    0.62682E-02   -0.11437E-02   720   0.568E-01    0.280E-02
DAV:   8    -0.526058303364E+01    0.30560E-04   -0.44637E-05   696   0.600E-02
   1 F= -.52605830E+01 E0= -.52591611E+01  d E =-.284382E-02
