LAMMPS (17 Nov 2016)
Reading data file ...
  orthogonal box = (-16.2239 -16.2239 -16.2239) to (24.2737 24.2737 24.2737)
  2 by 2 by 7 MPI processor grid
  reading atoms ...
  4000 atoms
  reading velocities ...
  4000 velocities
Reading potential file AlCu.eam.alloy with DATE: 2008-10-01
Neighbor list info ...
  1 neighbor list requests
  update every 1 steps, delay 10 steps, check yes
  max neighbors/atom: 2000, page size: 100000
  master list distance cutoff = 8.6825
  ghost atom cutoff = 8.6825
  binsize = 4.34125, bins = 10 10 10
Setting up Verlet run ...
  Unit style    : metal
  Current step  : 0
  Time step     : 0.001
Memory usage per processor = 3.68573 Mbytes
Step PotEng KinEng TotEng Enthalpy Temp Volume Press 
       0   -13202.856    129.22783   -13073.628   -13153.565          250    66418.488   -1928.2614 
    1000   -13070.234    152.17393    -12918.06   -13045.167    294.39079     68763.48   -2961.5632 
    2000    -13122.36    145.29043    -12977.07   -13026.316    281.07419    68143.431   -1157.8767 
    3000   -13147.577    136.83247   -13010.745   -13053.295    264.71169    67883.896    -1004.257 
    4000   -13147.199    130.49963   -13016.699   -13032.788    252.46038    67820.932    -380.0857 
    5000   -13124.515    121.27981   -13003.235   -12967.879    234.62402    67886.855    834.42327 
    6000       -13134    126.78526   -13007.215   -12994.262    245.27468    67864.146    305.80622 
    7000   -13148.341    134.29279   -13014.048   -13039.221    259.79851    67835.005   -594.54482 
    8000   -13139.504    132.87578   -13006.628   -13012.978    257.05721    67873.757   -149.89241 
    9000   -13128.116    122.37399   -13005.742    -12972.07    236.74079     67870.08    794.86284 
   10000   -13139.799    127.00132   -13012.798   -13011.077    245.69267    67840.324    40.624633 
   11000    -13142.65    134.04863   -13008.602   -13026.203    259.32616    67875.348   -415.46776 
   12000   -13137.601    132.57202   -13005.029   -13010.352    256.46957    67894.239   -125.60745 
   13000   -13134.959    123.47639   -13011.482    -12997.22    238.87344    67853.842    336.77417 
   14000   -13138.397    128.22753   -13010.169   -13010.676    248.06486     67866.05   -11.960056 
   15000   -13137.723    132.65747   -13005.066   -13014.116    256.63487    67902.706   -213.55296 
   16000   -13137.916    128.02534   -13009.891   -13008.327     247.6737    67869.443    36.913593 
   17000   -13135.416    124.40636    -13011.01   -12998.276    240.67253    67861.649    300.63576 
   18000   -13135.178    129.48936   -13005.688   -13004.231    250.50595    67901.672    34.396442 
   19000   -13139.238    130.70138   -13008.536   -13018.594    252.85068    67887.689   -237.35999 
   20000   -13136.882    125.42143    -13011.46   -13008.554    242.63626     67868.37    68.611337 
   21000   -13134.967     128.4499   -13006.517   -13004.291    248.49504    67894.671    52.546282 
   22000   -13138.867    131.35494   -13007.512   -13017.128    254.11505    67892.644   -226.93745 
   23000   -13140.438     128.9454   -13011.492    -13020.89    249.45363     67872.55   -221.83634 
   24000   -13134.463    126.86788   -13007.595    -13000.69    245.43451    67891.263    162.93749 
   25000   -13136.111    129.53041    -13006.58   -13009.628    250.58536    67898.902    -71.90717 
   26000   -13140.351    129.26402   -13011.087   -13021.407    250.07001    67874.794   -243.60244 
   27000   -13136.597     128.6898   -13007.907   -13011.051    248.95914     67895.07   -74.169559 
   28000   -13136.046    129.66323   -13006.383   -13011.326    250.84231    67908.132   -116.61158 
   29000   -13140.163    130.62933   -13009.533   -13020.979    252.71129    67883.337   -270.13779 
   30000   -13136.866    128.64306   -13008.223   -13010.133    248.86873    67891.472   -45.067478 
   31000    -13135.34    129.72742   -13005.613   -13007.505    250.96649    67905.635   -44.633183 
   32000    -13136.73    126.76564   -13009.965    -13005.09    245.23672    67875.089    115.05646 
   33000   -13139.185    129.13951   -13010.045   -13014.283    249.82913    67877.825   -100.01635 
   34000   -13139.003    133.74602   -13005.257   -13019.038    258.74074    67905.357   -325.14998 
   35000    -13137.39    128.69992    -13008.69   -13007.041    248.97873    67876.928    38.908601 
   36000   -13138.406    127.68155   -13010.725   -13003.072    247.00861    67851.093    180.69311 
   37000   -13134.629    129.90051   -13004.728   -12993.152    251.30135    67884.936    273.21155 
   38000     -13139.5    130.05898   -13009.441   -12994.112    251.60791    67833.149    362.06017 
   39000   -13135.945    126.54378   -13009.401   -12966.986    244.80752    67802.117    1002.2695 
   40000   -13137.149    129.88984   -13007.259   -12957.499    251.28071     67781.78    1176.1971 
   41000   -13135.361    133.61573   -13001.745   -12948.445    258.48869    67795.675    1259.6136 
   42000   -13137.977    129.78707    -13008.19   -12940.459    251.08188    67728.201    1602.2393 
   43000   -13139.511    129.49725   -13010.013   -12939.478    250.52122    67710.022    1669.0166 
   44000   -13136.208    132.21985   -13003.988   -12941.017    255.78826    67762.132    1488.9104 
   45000   -13137.538    129.60974   -13007.928   -12948.244    250.73882    67755.929    1411.3232 
   46000   -13138.542    129.56334   -13008.978   -12962.912    250.64907    67773.237    1089.0071 
   47000   -13137.872    132.10454   -13005.768   -12971.826    255.56519    67807.807    801.99501 
   48000   -13136.938    131.43508   -13005.503   -12980.855    254.27007    67840.638    582.09584 
   49000   -13136.632    127.14834   -13009.483   -12985.288    245.97708    67835.525    571.46313 
   50000   -13136.089     128.5432   -13007.546   -12990.846    248.67554    67859.661    394.29091 
   51000    -13135.82    131.62707   -13004.193   -13002.457    254.64149     67895.14    40.953603 
   52000   -13141.114    130.79875   -13010.316   -13016.027    253.03906    67862.233   -134.83655 
   53000   -13135.683    128.42821   -13007.254   -13004.588    248.45308    67893.253    62.920767 
   54000    -13135.43    131.33508   -13004.095   -13013.134    254.07662    67924.259   -213.20042 
   55000   -13137.956    127.10811   -13010.848   -13015.253    245.89927    67886.102   -103.96475 
   56000   -13138.906    131.06111   -13007.845   -13025.598    253.54661    67910.325   -418.84029 
   57000   -13135.486    129.71294   -13005.773   -13015.289    250.93848    67922.249   -224.47402 
   58000   -13136.386      128.072   -13008.314   -13019.644    247.76396    67916.339   -267.27934 
   59000   -13139.118    129.38556   -13009.732   -13029.063    250.30513    67907.757   -456.08558 
   60000   -13136.175    126.65386   -13009.521   -13016.298    245.02048    67908.633   -159.89581 
Loop time of 6386.39 on 28 procs for 60000 steps with 4000 atoms

Performance: 0.812 ns/day, 29.567 hours/ns, 9.395 timesteps/s
96.3% CPU use with 28 MPI tasks x no OpenMP threads

MPI task timing breakdown:
Section |  min time  |  avg time  |  max time  |%varavg| %total
---------------------------------------------------------------
Pair    | 1246.1     | 1378.7     | 1477.3     | 185.8 | 21.59
Neigh   | 0.02601    | 0.030006   | 0.033925   |   1.2 |  0.00
Comm    | 1505.7     | 1645       | 1766       | 193.5 | 25.76
Output  | 4.266      | 4.3108     | 4.3561     |   1.0 |  0.07
Modify  | 2628.5     | 2690.8     | 2734.7     |  50.6 | 42.13
Other   |            | 667.6      |            |       | 10.45

Nlocal:    142.857 ave 165 max 119 min
Histogram: 3 4 0 1 1 6 6 3 2 2
Nghost:    1909.18 ave 2044 max 1821 min
Histogram: 10 2 3 5 0 0 0 0 0 8
Neighs:    11464.1 ave 14237 max 9318 min
Histogram: 3 3 3 3 3 5 5 2 0 1

Total # of neighbors = 320996
Ave neighs/atom = 80.249
Neighbor list builds = 69
Dangerous builds = 0
All done
Total wall time: 1:46:29
