diamond Si                              
   5.70000000000000     
     0.000000    0.490819    0.490819
     0.490819    0.000000    0.490819
     0.490819    0.490819    0.000000
   Si
     2
Direct
  0.875000  0.875000  0.875000
  0.125000  0.125000  0.125000
 
   32   32   32
 0.22397362717E+02 0.22392514680E+02 0.22323257402E+02 0.22048282554E+02 0.21331572050E+02
 0.20085625147E+02 0.18572990114E+02 0.17315506167E+02 0.16825563261E+02 0.17315554062E+02
 0.18572968114E+02 0.20085467357E+02 0.21331386451E+02 0.22048277710E+02 0.22323570038E+02
 0.22393110946E+02 0.22398069032E+02 0.22393110946E+02 0.22323570038E+02 0.22048277710E+02
 0.21331386451E+02 0.20085467357E+02 0.18572968114E+02 0.17315554062E+02 0.16825563261E+02
 0.17315506167E+02 0.18572990114E+02 0.20085625147E+02 0.21331572050E+02 0.22048282554E+02
 0.22323257402E+02 0.22392514680E+02 0.22392514680E+02 0.22838586076E+02 0.23040732683E+02
 0.22610446244E+02 0.21291946049E+02 0.19277468131E+02 0.17206005791E+02 0.15888855974E+02
 0.15888838826E+02 0.17205942190E+02 0.19277356340E+02 0.21291839999E+02 0.22610445244E+02
 0.23040932181E+02 0.22839030009E+02 0.22393136474E+02 0.21890452767E+02 0.21394676925E+02
 0.20866905588E+02 0.20221337876E+02 0.19371225471E+02 0.18330585347E+02 0.17330911382E+02
 0.16709293631E+02 0.16709263384E+02 0.17330870055E+02 0.18330640972E+02 0.19371431786E+02
 0.20221580796E+02 0.20866945190E+02 0.21394359166E+02 0.21889861070E+02 0.22323257402E+02
 0.23040732683E+02 0.23054626415E+02 0.21900572619E+02 0.19586880906E+02 0.16728850705E+02
 0.14355534353E+02 0.13432805366E+02 0.14355426957E+02 0.16728682106E+02 0.19586719129E+02
 0.21900494893E+02 0.23054711905E+02 0.23041015248E+02 0.22323669463E+02 0.21394742905E+02
 0.20453097793E+02 0.19563665868E+02 0.18706065733E+02 0.17839127802E+02 0.16966659558E+02
 0.16156265721E+02 0.15556507462E+02 0.15332782936E+02 0.15556400267E+02 0.16156193247E+02
 0.16966749582E+02 0.17839359498E+02 0.18706288566E+02 0.19563715318E+02 0.20452900427E+02
 0.21394359166E+02 0.22048282554E+02 0.22610446244E+02 0.21900572619E+02 0.19666527618E+02
 0.16335529483E+02 0.12971513390E+02 0.10853873152E+02 0.10853803741E+02 0.12971328186E+02
 0.16335302457E+02 0.19666371806E+02 0.21900577890E+02 0.22610605132E+02 0.22048487790E+02
 0.20867085091E+02 0.19563752637E+02 0.18313928780E+02 0.17177038961E+02 0.16148379471E+02
 0.15217304163E+02 0.14410140854E+02 0.13796615845E+02 0.13461218662E+02 0.13461106717E+02
 0.13796409507E+02 0.14410067406E+02 0.15217429224E+02 0.16148582375E+02 0.17177188403E+02
 0.18313985818E+02 0.19563715318E+02 0.20866945190E+02 0.21331572050E+02 0.21291946049E+02
 0.19586880906E+02 0.16335529483E+02 0.12418724804E+02 0.92104834082E+01 0.79707921580E+01
 0.92102846698E+01 0.12418522828E+02 0.16335492882E+02 0.19586987103E+02 0.21292060463E+02
 0.21331623037E+02 0.20221594119E+02 0.18706286186E+02 0.17177135296E+02 0.15772979504E+02
 0.14542571353E+02 0.13489478008E+02 0.12616005785E+02 0.11945589710E+02 0.11518302183E+02
 0.11370937098E+02 0.11518198146E+02 0.11945442774E+02 0.12615914238E+02 0.13489509495E+02
 0.14542697578E+02 0.15773101902E+02 0.17177188403E+02 0.18706288566E+02 0.20221580796E+02
 0.20085625147E+02 0.19277468131E+02 0.16728850705E+02 0.12971513390E+02 0.92104834082E+01
 0.68556143143E+01 0.68555089656E+01 0.92103316620E+01 0.12971577584E+02 0.16729137119E+02
 0.19277743804E+02 0.20085734092E+02 0.19371435562E+02 0.17839366526E+02 0.16148591678E+02
 0.14542672085E+02 0.13124954852E+02 0.11929620105E+02 0.10959664526E+02 0.10216057093E+02
 0.97082319274E+01 0.94497075642E+01 0.94497034159E+01 0.97081840477E+01 0.10215928719E+02
 0.10959510376E+02 0.11929540791E+02 0.13124967496E+02 0.14542697578E+02 0.16148582375E+02
 0.17839359498E+02 0.19371431786E+02 0.18572990114E+02 0.17206005791E+02 0.14355534353E+02
 0.10853873152E+02 0.79707921580E+01 0.68555089656E+01 0.79707750584E+01 0.10853992508E+02
 0.14355872330E+02 0.17206435482E+02 0.18573303628E+02 0.18330765867E+02 0.16966781779E+02
 0.15217492789E+02 0.13489642990E+02 0.11929712345E+02 0.10604877277E+02 0.95321142561E+01
 0.87069518561E+01 0.81218548205E+01 0.77722211045E+01 0.76558924015E+01 0.77721901078E+01
 0.81217818766E+01 0.87068330229E+01 0.95319605498E+01 0.10604704548E+02 0.11929540791E+02
 0.13489509495E+02 0.15217429224E+02 0.16966749582E+02 0.18330640972E+02 0.17315506167E+02
 0.15888855974E+02 0.13432805366E+02 0.10853803741E+02 0.92102846698E+01 0.92103316620E+01
 0.10853992508E+02 0.13433193611E+02 0.15889371820E+02 0.17315953685E+02 0.17331108057E+02
 0.16156275564E+02 0.14410165076E+02 0.12616120348E+02 0.10959770603E+02 0.95321809773E+01
 0.83668119351E+01 0.74626913988E+01 0.68050264050E+01 0.63774746695E+01 0.61672450432E+01
 0.61672612822E+01 0.63774942570E+01 0.68050021646E+01 0.74626070248E+01 0.83666640523E+01
 0.95319605498E+01 0.10959510376E+02 0.12615914238E+02 0.14410067406E+02 0.16156193247E+02
 0.17330870055E+02 0.16825563261E+02 0.15888838826E+02 0.14355426957E+02 0.12971328186E+02
 0.12418522828E+02 0.12971577584E+02 0.14355872330E+02 0.15889371820E+02 0.16826046536E+02
 0.16709593233E+02 0.15556564614E+02 0.13796486800E+02 0.11945535202E+02 0.10216083074E+02
 0.87070134971E+01 0.74627342734E+01 0.64877094688E+01 0.57648678264E+01 0.52705602164E+01
 0.49835630110E+01 0.48896073241E+01 0.49836560981E+01 0.52706918438E+01 0.57649569246E+01
 0.64876930989E+01 0.74626070248E+01 0.87068330229E+01 0.10215928719E+02 0.11945442774E+02
 0.13796409507E+02 0.15556400267E+02 0.16709263384E+02 0.17315554062E+02 0.17205942190E+02
 0.16728682106E+02 0.16335302457E+02 0.16335492882E+02 0.16729137119E+02 0.17206435482E+02
 0.17315953685E+02 0.16709593233E+02 0.15332983095E+02 0.13461169145E+02 0.11518139944E+02
 0.97081244585E+01 0.81218154486E+01 0.68050692160E+01 0.57649170099E+01 0.49832124302E+01
 0.44312877106E+01 0.40810666399E+01 0.39114983038E+01 0.39115385964E+01 0.40812030036E+01
 0.44315028883E+01 0.49833944973E+01 0.57649569246E+01 0.68050021646E+01 0.81217818766E+01
 0.97081840477E+01 0.11518198146E+02 0.13461106717E+02 0.15332782936E+02 0.16709293631E+02
 0.18572968114E+02 0.19277356340E+02 0.19586719129E+02 0.19666371806E+02 0.19586987103E+02
 0.19277743804E+02 0.18573303628E+02 0.17331108057E+02 0.15556564614E+02 0.13461169145E+02
 0.11370823043E+02 0.94495776727E+01 0.77720934791E+01 0.63774251925E+01 0.52706106372E+01
 0.44313754315E+01 0.38266625273E+01 0.34223658177E+01 0.31911470022E+01 0.31160096882E+01
 0.31912459437E+01 0.34225269532E+01 0.38268296192E+01 0.44315028883E+01 0.52706918438E+01
 0.63774942570E+01 0.77721901078E+01 0.94497034159E+01 0.11370937098E+02 0.13461218662E+02
 0.15556507462E+02 0.17330911382E+02 0.20085467357E+02 0.21291839999E+02 0.21900494893E+02
 0.21900577890E+02 0.21292060463E+02 0.20085734092E+02 0.18330765867E+02 0.16156275564E+02
 0.13796486800E+02 0.11518139944E+02 0.94495776727E+01 0.76557775503E+01 0.61671361453E+01
 0.49835484566E+01 0.40811478303E+01 0.34224948125E+01 0.29677586661E+01 0.26834651972E+01
 0.25469111757E+01 0.25469616530E+01 0.26835661183E+01 0.29678281446E+01 0.34225269532E+01
 0.40812030036E+01 0.49836560981E+01 0.61672612822E+01 0.76558924015E+01 0.94497075642E+01
 0.11518302183E+02 0.13796615845E+02 0.16156265721E+02 0.18330585347E+02 0.21331386451E+02
 0.22610445244E+02 0.23054711905E+02 0.22610605132E+02 0.21331623037E+02 0.19371435562E+02
 0.16966781779E+02 0.14410165076E+02 0.11945535202E+02 0.97081244585E+01 0.77720934791E+01
 0.61671361453E+01 0.48895454595E+01 0.39115285153E+01 0.31912721659E+01 0.26836078711E+01
 0.23490680684E+01 0.21591662787E+01 0.20975873155E+01 0.21591419598E+01 0.23490281996E+01
 0.26835661183E+01 0.31912459437E+01 0.39115385964E+01 0.48896073241E+01 0.61672450432E+01
 0.77722211045E+01 0.97082319274E+01 0.11945589710E+02 0.14410140854E+02 0.16966659558E+02
 0.19371225471E+02 0.22048277710E+02 0.23040932181E+02 0.23041015248E+02 0.22048487790E+02
 0.20221594119E+02 0.17839366526E+02 0.15217492789E+02 0.12616120348E+02 0.10216083074E+02
 0.81218154486E+01 0.63774251925E+01 0.49835484566E+01 0.39115285153E+01 0.31160798267E+01
 0.25470748627E+01 0.21592907191E+01 0.19184448445E+01 0.18029798951E+01 0.18029227129E+01
 0.19183071865E+01 0.21591419598E+01 0.25469616530E+01 0.31160096882E+01 0.39114983038E+01
 0.49835630110E+01 0.63774746695E+01 0.81218548205E+01 0.10216057093E+02 0.12616005785E+02
 0.15217304163E+02 0.17839127802E+02 0.20221337876E+02 0.22323570038E+02 0.22839030009E+02
 0.22323669463E+02 0.20867085091E+02 0.18706286186E+02 0.16148591678E+02 0.13489642990E+02
 0.10959770603E+02 0.87070134971E+01 0.68050692160E+01 0.52706106372E+01 0.40811478303E+01
 0.31912721659E+01 0.25470748627E+01 0.20977627032E+01 0.18030706326E+01 0.16359672916E+01
 0.15817516164E+01 0.16358829538E+01 0.18029227129E+01 0.20975873155E+01 0.25469111757E+01
 0.31911470022E+01 0.40810666399E+01 0.52705602164E+01 0.68050264050E+01 0.87069518561E+01
 0.10959664526E+02 0.13489478008E+02 0.16148379471E+02 0.18706065733E+02 0.20866905588E+02
 0.22393110946E+02 0.22393136474E+02 0.21394742905E+02 0.19563752637E+02 0.17177135296E+02
 0.14542672085E+02 0.11929712345E+02 0.95321809773E+01 0.74627342734E+01 0.57649170099E+01
 0.44313754315E+01 0.34224948125E+01 0.26836078711E+01 0.21592907191E+01 0.18030706326E+01
 0.15818062250E+01 0.14756258280E+01 0.14756074118E+01 0.15817516164E+01 0.18029798951E+01
 0.21591662787E+01 0.26834651972E+01 0.34223658177E+01 0.44312877106E+01 0.57648678264E+01
 0.74626913988E+01 0.95321142561E+01 0.11929620105E+02 0.14542571353E+02 0.17177038961E+02
 0.19563665868E+02 0.21394676925E+02 0.22398069032E+02 0.21890452767E+02 0.20453097793E+02
 0.18313928780E+02 0.15772979504E+02 0.13124954852E+02 0.10604877277E+02 0.83668119351E+01
 0.64877094688E+01 0.49832124302E+01 0.38266625273E+01 0.29677586661E+01 0.23490680684E+01
 0.19184448445E+01 0.16359672916E+01 0.14756258280E+01 0.14235873151E+01 0.14756258280E+01
 0.16359672916E+01 0.19184448445E+01 0.23490680684E+01 0.29677586661E+01 0.38266625273E+01
 0.49832124302E+01 0.64877094688E+01 0.83668119351E+01 0.10604877277E+02 0.13124954852E+02
 0.15772979504E+02 0.18313928780E+02 0.20453097793E+02 0.21890452767E+02 0.22393110946E+02
 0.21394676925E+02 0.19563665868E+02 0.17177038961E+02 0.14542571353E+02 0.11929620105E+02
 0.95321142561E+01 0.74626913988E+01 0.57648678264E+01 0.44312877106E+01 0.34223658177E+01
 0.26834651972E+01 0.21591662787E+01 0.18029798951E+01 0.15817516164E+01 0.14756074118E+01
 0.14756258280E+01 0.15818062250E+01 0.18030706326E+01 0.21592907191E+01 0.26836078711E+01
 0.34224948125E+01 0.44313754315E+01 0.57649170099E+01 0.74627342734E+01 0.95321809773E+01
 0.11929712345E+02 0.14542672085E+02 0.17177135296E+02 0.19563752637E+02 0.21394742905E+02
 0.22393136474E+02 0.22323570038E+02 0.20866905588E+02 0.18706065733E+02 0.16148379471E+02
 0.13489478008E+02 0.10959664526E+02 0.87069518561E+01 0.68050264050E+01 0.52705602164E+01
 0.40810666399E+01 0.31911470022E+01 0.25469111757E+01 0.20975873155E+01 0.18029227129E+01
 0.16358829538E+01 0.15817516164E+01 0.16359672916E+01 0.18030706326E+01 0.20977627032E+01
 0.25470748627E+01 0.31912721659E+01 0.40811478303E+01 0.52706106372E+01 0.68050692160E+01
 0.87070134971E+01 0.10959770603E+02 0.13489642990E+02 0.16148591678E+02 0.18706286186E+02
 0.20867085091E+02 0.22323669463E+02 0.22839030009E+02 0.22048277710E+02 0.20221337876E+02
 0.17839127802E+02 0.15217304163E+02 0.12616005785E+02 0.10216057093E+02 0.81218548205E+01
 0.63774746695E+01 0.49835630110E+01 0.39114983038E+01 0.31160096882E+01 0.25469616530E+01
 0.21591419598E+01 0.19183071865E+01 0.18029227129E+01 0.18029798951E+01 0.19184448445E+01
 0.21592907191E+01 0.25470748627E+01 0.31160798267E+01 0.39115285153E+01 0.49835484566E+01
 0.63774251925E+01 0.81218154486E+01 0.10216083074E+02 0.12616120348E+02 0.15217492789E+02
 0.17839366526E+02 0.20221594119E+02 0.22048487790E+02 0.23041015248E+02 0.23040932181E+02
 0.21331386451E+02 0.19371225471E+02 0.16966659558E+02 0.14410140854E+02 0.11945589710E+02
 0.97082319274E+01 0.77722211045E+01 0.61672450432E+01 0.48896073241E+01 0.39115385964E+01
 0.31912459437E+01 0.26835661183E+01 0.23490281996E+01 0.21591419598E+01 0.20975873155E+01
 0.21591662787E+01 0.23490680684E+01 0.26836078711E+01 0.31912721659E+01 0.39115285153E+01
 0.48895454595E+01 0.61671361453E+01 0.77720934791E+01 0.97081244585E+01 0.11945535202E+02
 0.14410165076E+02 0.16966781779E+02 0.19371435562E+02 0.21331623037E+02 0.22610605132E+02
 0.23054711905E+02 0.22610445244E+02 0.20085467357E+02 0.18330585347E+02 0.16156265721E+02
 0.13796615845E+02 0.11518302183E+02 0.94497075642E+01 0.76558924015E+01 0.61672612822E+01
 0.49836560981E+01 0.40812030036E+01 0.34225269532E+01 0.29678281446E+01 0.26835661183E+01
 0.25469616530E+01 0.25469111757E+01 0.26834651972E+01 0.29677586661E+01 0.34224948125E+01
 0.40811478303E+01 0.49835484566E+01 0.61671361453E+01 0.76557775503E+01 0.94495776727E+01
 0.11518139944E+02 0.13796486800E+02 0.16156275564E+02 0.18330765867E+02 0.20085734092E+02
 0.21292060463E+02 0.21900577890E+02 0.21900494893E+02 0.21291839999E+02 0.18572968114E+02
 0.17330911382E+02 0.15556507462E+02 0.13461218662E+02 0.11370937098E+02 0.94497034159E+01
 0.77721901078E+01 0.63774942570E+01 0.52706918438E+01 0.44315028883E+01 0.38268296192E+01
 0.34225269532E+01 0.31912459437E+01 0.31160096882E+01 0.31911470022E+01 0.34223658177E+01
 0.38266625273E+01 0.44313754315E+01 0.52706106372E+01 0.63774251925E+01 0.77720934791E+01
 0.94495776727E+01 0.11370823043E+02 0.13461169145E+02 0.15556564614E+02 0.17331108057E+02
 0.18573303628E+02 0.19277743804E+02 0.19586987103E+02 0.19666371806E+02 0.19586719129E+02
 0.19277356340E+02 0.17315554062E+02 0.16709293631E+02 0.15332782936E+02 0.13461106717E+02
 0.11518198146E+02 0.97081840477E+01 0.81217818766E+01 0.68050021646E+01 0.57649569246E+01
 0.49833944973E+01 0.44315028883E+01 0.40812030036E+01 0.39115385964E+01 0.39114983038E+01
 0.40810666399E+01 0.44312877106E+01 0.49832124302E+01 0.57649170099E+01 0.68050692160E+01
 0.81218154486E+01 0.97081244585E+01 0.11518139944E+02 0.13461169145E+02 0.15332983095E+02
 0.16709593233E+02 0.17315953685E+02 0.17206435482E+02 0.16729137119E+02 0.16335492882E+02
 0.16335302457E+02 0.16728682106E+02 0.17205942190E+02 0.16825563261E+02 0.16709263384E+02
 0.15556400267E+02 0.13796409507E+02 0.11945442774E+02 0.10215928719E+02 0.87068330229E+01
 0.74626070248E+01 0.64876930989E+01 0.57649569246E+01 0.52706918438E+01 0.49836560981E+01
 0.48896073241E+01 0.49835630110E+01 0.52705602164E+01 0.57648678264E+01 0.64877094688E+01
 0.74627342734E+01 0.87070134971E+01 0.10216083074E+02 0.11945535202E+02 0.13796486800E+02
 0.15556564614E+02 0.16709593233E+02 0.16826046536E+02 0.15889371820E+02 0.14355872330E+02
 0.12971577584E+02 0.12418522828E+02 0.12971328186E+02 0.14355426957E+02 0.15888838826E+02
 0.17315506167E+02 0.17330870055E+02 0.16156193247E+02 0.14410067406E+02 0.12615914238E+02
 0.10959510376E+02 0.95319605498E+01 0.83666640523E+01 0.74626070248E+01 0.68050021646E+01
 0.63774942570E+01 0.61672612822E+01 0.61672450432E+01 0.63774746695E+01 0.68050264050E+01
 0.74626913988E+01 0.83668119351E+01 0.95321809773E+01 0.10959770603E+02 0.12616120348E+02
 0.14410165076E+02 0.16156275564E+02 0.17331108057E+02 0.17315953685E+02 0.15889371820E+02
 0.13433193611E+02 0.10853992508E+02 0.92103316620E+01 0.92102846698E+01 0.10853803741E+02
 0.13432805366E+02 0.15888855974E+02 0.18572990114E+02 0.18330640972E+02 0.16966749582E+02
 0.15217429224E+02 0.13489509495E+02 0.11929540791E+02 0.10604704548E+02 0.95319605498E+01
 0.87068330229E+01 0.81217818766E+01 0.77721901078E+01 0.76558924015E+01 0.77722211045E+01
 0.81218548205E+01 0.87069518561E+01 0.95321142561E+01 0.10604877277E+02 0.11929712345E+02
 0.13489642990E+02 0.15217492789E+02 0.16966781779E+02 0.18330765867E+02 0.18573303628E+02
 0.17206435482E+02 0.14355872330E+02 0.10853992508E+02 0.79707750584E+01 0.68555089656E+01
 0.79707921580E+01 0.10853873152E+02 0.14355534353E+02 0.17206005791E+02 0.20085625147E+02
 0.19371431786E+02 0.17839359498E+02 0.16148582375E+02 0.14542697578E+02 0.13124967496E+02
 0.11929540791E+02 0.10959510376E+02 0.10215928719E+02 0.97081840477E+01 0.94497034159E+01
 0.94497075642E+01 0.97082319274E+01 0.10216057093E+02 0.10959664526E+02 0.11929620105E+02
 0.13124954852E+02 0.14542672085E+02 0.16148591678E+02 0.17839366526E+02 0.19371435562E+02
 0.20085734092E+02 0.19277743804E+02 0.16729137119E+02 0.12971577584E+02 0.92103316620E+01
 0.68555089656E+01 0.68556143143E+01 0.92104834082E+01 0.12971513390E+02 0.16728850705E+02
 0.19277468131E+02 0.21331572050E+02 0.20221580796E+02 0.18706288566E+02 0.17177188403E+02
 0.15773101902E+02 0.14542697578E+02 0.13489509495E+02 0.12615914238E+02 0.11945442774E+02
 0.11518198146E+02 0.11370937098E+02 0.11518302183E+02 0.11945589710E+02 0.12616005785E+02
 0.13489478008E+02 0.14542571353E+02 0.15772979504E+02 0.17177135296E+02 0.18706286186E+02
 0.20221594119E+02 0.21331623037E+02 0.21292060463E+02 0.19586987103E+02 0.16335492882E+02
 0.12418522828E+02 0.92102846698E+01 0.79707921580E+01 0.92104834082E+01 0.12418724804E+02
 0.16335529483E+02 0.19586880906E+02 0.21291946049E+02 0.22048282554E+02 0.20866945190E+02
 0.19563715318E+02 0.18313985818E+02 0.17177188403E+02 0.16148582375E+02 0.15217429224E+02
 0.14410067406E+02 0.13796409507E+02 0.13461106717E+02 0.13461218662E+02 0.13796615845E+02
 0.14410140854E+02 0.15217304163E+02 0.16148379471E+02 0.17177038961E+02 0.18313928780E+02
 0.19563752637E+02 0.20867085091E+02 0.22048487790E+02 0.22610605132E+02 0.21900577890E+02
 0.19666371806E+02 0.16335302457E+02 0.12971328186E+02 0.10853803741E+02 0.10853873152E+02
 0.12971513390E+02 0.16335529483E+02 0.19666527618E+02 0.21900572619E+02 0.22610446244E+02
 0.22323257402E+02 0.21394359166E+02 0.20452900427E+02 0.19563715318E+02 0.18706288566E+02
 0.17839359498E+02 0.16966749582E+02 0.16156193247E+02 0.15556400267E+02 0.15332782936E+02
 0.15556507462E+02 0.16156265721E+02 0.16966659558E+02 0.17839127802E+02 0.18706065733E+02
 0.19563665868E+02 0.20453097793E+02 0.21394742905E+02 0.22323669463E+02 0.23041015248E+02
 0.23054711905E+02 0.21900494893E+02 0.19586719129E+02 0.16728682106E+02 0.14355426957E+02
 0.13432805366E+02 0.14355534353E+02 0.16728850705E+02 0.19586880906E+02 0.21900572619E+02
 0.23054626415E+02 0.23040732683E+02 0.22392514680E+02 0.21889861070E+02 0.21394359166E+02
 0.20866945190E+02 0.20221580796E+02 0.19371431786E+02 0.18330640972E+02 0.17330870055E+02
 0.16709263384E+02 0.16709293631E+02 0.17330911382E+02 0.18330585347E+02 0.19371225471E+02
 0.20221337876E+02 0.20866905588E+02 0.21394676925E+02 0.21890452767E+02 0.22393136474E+02
 0.22839030009E+02 0.23040932181E+02 0.22610445244E+02 0.21291839999E+02 0.19277356340E+02
 0.17205942190E+02 0.15888838826E+02 0.15888855974E+02 0.17206005791E+02 0.19277468131E+02
 0.21291946049E+02 0.22610446244E+02 0.23040732683E+02 0.22838586076E+02 0.22392718142E+02
 0.22838352619E+02 0.23040230629E+02 0.22609998621E+02 0.21291784395E+02 0.19277584732E+02
 0.17206203129E+02 0.15888947176E+02 0.15888818425E+02 0.17205946569E+02 0.19277461716E+02
 0.21291963754E+02 0.22610478505E+02 0.23040893312E+02 0.22839011264E+02 0.22393154917E+02
 0.21890454004E+02 0.21394659030E+02 0.20866928900E+02 0.20221404877E+02 0.19371252494E+02
 0.18330528611E+02 0.17330841582E+02 0.16709292817E+02 0.16709295139E+02 0.17330805976E+02
 0.18330409523E+02 0.19371125217E+02 0.20221419875E+02 0.20867116694E+02 0.21394836034E+02
 0.21890368836E+02 0.22838352619E+02 0.23564548922E+02 0.23530058083E+02 0.22256284393E+02
 0.19763561849E+02 0.16708516495E+02 0.14180176034E+02 0.13198482863E+02 0.14180031068E+02
 0.16708326053E+02 0.19763521200E+02 0.22256585121E+02 0.23530727190E+02 0.23565383120E+02
 0.22839035535E+02 0.21884735389E+02 0.20918459574E+02 0.20007014236E+02 0.19127456912E+02
 0.18235002058E+02 0.17330747381E+02 0.16482522179E+02 0.15851521348E+02 0.15615686061E+02
 0.15851397081E+02 0.16482343432E+02 0.17330655930E+02 0.18235132402E+02 0.19127803439E+02
 0.20007385235E+02 0.20918584804E+02 0.21884440184E+02 0.23040230629E+02 0.23530058083E+02
 0.22580368948E+02 0.19941304240E+02 0.16110582881E+02 0.12282936575E+02 0.98846234337E+01
 0.98846122929E+01 0.12282854965E+02 0.16110413667E+02 0.19941229332E+02 0.22580652265E+02
 0.23530729677E+02 0.23040974390E+02 0.21815650396E+02 0.20445884364E+02 0.19133710753E+02
 0.17941100188E+02 0.16859608767E+02 0.15875077371E+02 0.15015467789E+02 0.14358034394E+02
 0.13996524474E+02 0.13996394439E+02 0.14357772141E+02 0.15015320439E+02 0.15875183723E+02
 0.16859941387E+02 0.17941539964E+02 0.19134074822E+02 0.20445932428E+02 0.21815231386E+02
 0.22609998621E+02 0.22256284393E+02 0.19941304240E+02 0.15852401530E+02 0.11052056189E+02
 0.71640273504E+01 0.56685161305E+01 0.71640975652E+01 0.11052028383E+02 0.15852210038E+02
 0.19941154724E+02 0.22256450738E+02 0.22610472536E+02 0.21553071695E+02 0.19943607565E+02
 0.18306593867E+02 0.16803323446E+02 0.15485382506E+02 0.14353263673E+02 0.13407856734E+02
 0.12676540234E+02 0.12207400920E+02 0.12044973712E+02 0.12207192301E+02 0.12676330175E+02
 0.13407830107E+02 0.14353450949E+02 0.15485728177E+02 0.16803727403E+02 0.18306856654E+02
 0.19943509629E+02 0.21552624917E+02 0.21291784395E+02 0.19763561849E+02 0.16110582881E+02
 0.11052056189E+02 0.61140898018E+01 0.30561584985E+01 0.30562681180E+01 0.61142806634E+01
 0.11052090550E+02 0.16110421795E+02 0.19763409587E+02 0.21291835155E+02 0.20884389871E+02
 0.19336730798E+02 0.17511974744E+02 0.15768359194E+02 0.14226211955E+02 0.12923084101E+02
 0.11860669564E+02 0.11040529233E+02 0.10476417544E+02 0.10187708156E+02 0.10187659322E+02
 0.10476306343E+02 0.11040437565E+02 0.11860678760E+02 0.12923231848E+02 0.14226458449E+02
 0.15768576982E+02 0.17512016292E+02 0.19336565799E+02 0.20884175050E+02 0.19277584732E+02
 0.16708516495E+02 0.12282936575E+02 0.71640273504E+01 0.30561584985E+01 0.14832776818E+01
 0.30564224930E+01 0.71643195456E+01 0.12283040057E+02 0.16708438150E+02 0.19277490090E+02
 0.19721132955E+02 0.18563825888E+02 0.16717672998E+02 0.14837023048E+02 0.13125619212E+02
 0.11666361326E+02 0.10480232189E+02 0.95630691288E+01 0.89086672012E+01 0.85154283376E+01
 0.83841689371E+01 0.85154202702E+01 0.89086496495E+01 0.95630425445E+01 0.10480205298E+02
 0.11666348248E+02 0.13125618495E+02 0.14837003612E+02 0.16717607699E+02 0.18563748267E+02
 0.19721128307E+02 0.17206203129E+02 0.14180176034E+02 0.98846234337E+01 0.56685161305E+01
 0.30562681180E+01 0.30564224930E+01 0.56688689666E+01 0.98849457528E+01 0.14180322509E+02
 0.17206205110E+02 0.18305143660E+02 0.17635897462E+02 0.15931236853E+02 0.14003834998E+02
 0.12190062130E+02 0.10611689580E+02 0.93157764786E+01 0.83054238233E+01 0.75666917833E+01
 0.70840457931E+01 0.68458536363E+01 0.68458755235E+01 0.70840927333E+01 0.75667133872E+01
 0.83053663932E+01 0.93156282068E+01 0.10611493407E+02 0.12189873485E+02 0.14003681148E+02
 0.15931129327E+02 0.17635856035E+02 0.18305163308E+02 0.15888947176E+02 0.13198482863E+02
 0.98846122929E+01 0.71640975652E+01 0.61142806634E+01 0.71643195456E+01 0.98849457528E+01
 0.13198793984E+02 0.15889157976E+02 0.17125785550E+02 0.16749691731E+02 0.15220712307E+02
 0.13291794346E+02 0.11422974594E+02 0.97623653892E+01 0.83786807115E+01 0.72870701122E+01
 0.64735839958E+01 0.59148339345E+01 0.55893207362E+01 0.54825532250E+01 0.55894011783E+01
 0.59149260271E+01 0.64736076067E+01 0.72869808637E+01 0.83784782516E+01 0.97620931746E+01
 0.11422712806E+02 0.13291616340E+02 0.15220627350E+02 0.16749637879E+02 0.17125679721E+02
 0.15888818425E+02 0.14180031068E+02 0.12282854965E+02 0.11052028383E+02 0.11052090550E+02
 0.12283040057E+02 0.14180322509E+02 0.15889157976E+02 0.16665857646E+02 0.16199527194E+02
 0.14704259354E+02 0.12757252984E+02 0.10841782182E+02 0.91179593655E+01 0.76633253763E+01
 0.65023850034E+01 0.56241022339E+01 0.50011637872E+01 0.46046375987E+01 0.44122975215E+01
 0.44123479508E+01 0.46047680515E+01 0.50013119200E+01 0.56241793641E+01 0.65023234295E+01
 0.76631384802E+01 0.91177478253E+01 0.10841652289E+02 0.12757213606E+02 0.14704212018E+02
 0.16199365358E+02 0.16665567386E+02 0.17205946569E+02 0.16708326053E+02 0.16110413667E+02
 0.15852210038E+02 0.16110421795E+02 0.16708438150E+02 0.17206205110E+02 0.17125785550E+02
 0.16199527194E+02 0.14513112783E+02 0.12467552907E+02 0.10475351529E+02 0.86824253391E+01
 0.71602766196E+01 0.59353986974E+01 0.49983833429E+01 0.43195579499E+01 0.38642916089E+01
 0.36034963200E+01 0.35186937061E+01 0.36036134434E+01 0.38644672506E+01 0.43197112462E+01
 0.49984602368E+01 0.59354003650E+01 0.71602506979E+01 0.86824293037E+01 0.10475407310E+02
 0.12467611850E+02 0.14513073945E+02 0.16199325041E+02 0.17125479036E+02 0.19277461716E+02
 0.19763521200E+02 0.19941229332E+02 0.19941154724E+02 0.19763409587E+02 0.19277490090E+02
 0.18305143660E+02 0.16749691731E+02 0.14704259354E+02 0.12467552907E+02 0.10349821213E+02
 0.84624794568E+01 0.68618656887E+01 0.55689169796E+01 0.45726034607E+01 0.38407208954E+01
 0.33337319549E+01 0.30163420871E+01 0.28638471651E+01 0.28639102104E+01 0.30164690491E+01
 0.33338289891E+01 0.38407894202E+01 0.45727056359E+01 0.55690541866E+01 0.68619839218E+01
 0.84625788918E+01 0.10349960344E+02 0.12467716079E+02 0.14704321221E+02 0.16749581973E+02
 0.18304982339E+02 0.21291963754E+02 0.22256585121E+02 0.22580652265E+02 0.22256450738E+02
 0.21291835155E+02 0.19721132955E+02 0.17635897462E+02 0.15220712307E+02 0.12757252984E+02
 0.10475351529E+02 0.84624794568E+01 0.67630716373E+01 0.53895216893E+01 0.43262468071E+01
 0.35377258536E+01 0.29800283478E+01 0.26121326503E+01 0.24033329078E+01 0.23356671612E+01
 0.24033450671E+01 0.26121383506E+01 0.29800396306E+01 0.35377837296E+01 0.43263586988E+01
 0.53896486160E+01 0.67631985621E+01 0.84626463400E+01 0.10475574243E+02 0.12757453566E+02
 0.15220795778E+02 0.17635888087E+02 0.19721159172E+02 0.22610478505E+02 0.23530727190E+02
 0.23530729677E+02 0.22610472536E+02 0.20884389871E+02 0.18563825888E+02 0.15931236853E+02
 0.13291794346E+02 0.10841782182E+02 0.86824253391E+01 0.68618656887E+01 0.53895216893E+01
 0.42457665905E+01 0.33912740936E+01 0.27779248157E+01 0.23596048771E+01 0.20999727312E+01
 0.19756184203E+01 0.19755730401E+01 0.20998774519E+01 0.23595299137E+01 0.27778931850E+01
 0.33912694965E+01 0.42457980522E+01 0.53896265469E+01 0.68620423847E+01 0.86826049697E+01
 0.10841894667E+02 0.13291840576E+02 0.15931265519E+02 0.18563863609E+02 0.20884419426E+02
 0.23040893312E+02 0.23565383120E+02 0.23040974390E+02 0.21553071695E+02 0.19336730798E+02
 0.16717672998E+02 0.14003834998E+02 0.11422974594E+02 0.91179593655E+01 0.71602766196E+01
 0.55689169796E+01 0.43262468071E+01 0.33912740936E+01 0.27122626842E+01 0.22382880679E+01
 0.19276581013E+01 0.17517330882E+01 0.16947006220E+01 0.17516454360E+01 0.19275173556E+01
 0.22381383996E+01 0.27121413322E+01 0.33912131218E+01 0.43262644931E+01 0.55689921160E+01
 0.71603465300E+01 0.91179696812E+01 0.11422928188E+02 0.14003775767E+02 0.16717619610E+02
 0.19336658541E+02 0.21552971134E+02 0.22839011264E+02 0.22839035535E+02 0.21815650396E+02
 0.19943607565E+02 0.17511974744E+02 0.14837023048E+02 0.12190062130E+02 0.97623653892E+01
 0.76633253763E+01 0.59353986974E+01 0.45726034607E+01 0.35377258536E+01 0.27779248157E+01
 0.22382880679E+01 0.18717797526E+01 0.16443098180E+01 0.15352236193E+01 0.15351940222E+01
 0.16442181745E+01 0.18716327009E+01 0.22381196508E+01 0.27777805657E+01 0.35376251490E+01
 0.45725296478E+01 0.59353275467E+01 0.76632516077E+01 0.97622946293E+01 0.12189987717E+02
 0.14836930335E+02 0.17511865201E+02 0.19943504490E+02 0.21815580098E+02 0.22393154917E+02
 0.21884735389E+02 0.20445884364E+02 0.18306593867E+02 0.15768359194E+02 0.13125619212E+02
 0.10611689580E+02 0.83786807115E+01 0.65023850034E+01 0.49983833429E+01 0.38407208954E+01
 0.29800283478E+01 0.23596048771E+01 0.19276581013E+01 0.16443098180E+01 0.14834738725E+01
 0.14312648135E+01 0.14834510027E+01 0.16442716208E+01 0.19275974244E+01 0.23595015339E+01
 0.29798831005E+01 0.38405700141E+01 0.49982637046E+01 0.65022975592E+01 0.83786034413E+01
 0.10611619054E+02 0.13125573627E+02 0.15768341328E+02 0.18306577595E+02 0.20445850372E+02
 0.21884702205E+02 0.21890454004E+02 0.20918459574E+02 0.19133710753E+02 0.16803323446E+02
 0.14226211955E+02 0.11666361326E+02 0.93157764786E+01 0.72870701122E+01 0.56241022339E+01
 0.43195579499E+01 0.33337319549E+01 0.26121326503E+01 0.20999727312E+01 0.17517330882E+01
 0.15352236193E+01 0.14312648135E+01 0.14312773272E+01 0.15352600922E+01 0.17517839316E+01
 0.21000144995E+01 0.26121400613E+01 0.33336993090E+01 0.43195034615E+01 0.56240508636E+01
 0.72870368357E+01 0.93157666069E+01 0.11666378561E+02 0.14226254934E+02 0.16803377994E+02
 0.19133755940E+02 0.20918484161E+02 0.21890460860E+02 0.21394659030E+02 0.20007014236E+02
 0.17941100188E+02 0.15485382506E+02 0.12923084101E+02 0.10480232189E+02 0.83054238233E+01
 0.64735839958E+01 0.50011637872E+01 0.38642916089E+01 0.30163420871E+01 0.24033329078E+01
 0.19756184203E+01 0.16947006220E+01 0.15351940222E+01 0.14834510027E+01 0.15352600922E+01
 0.16948076855E+01 0.19757508346E+01 0.24034877696E+01 0.30164920744E+01 0.38643823365E+01
 0.50011770475E+01 0.64735788224E+01 0.83054798242E+01 0.10480357806E+02 0.12923219425E+02
 0.15485491257E+02 0.17941210006E+02 0.20007146440E+02 0.21394762356E+02 0.21884695934E+02
 0.20866928900E+02 0.19127456912E+02 0.16859608767E+02 0.14353263673E+02 0.11860669564E+02
 0.95630691288E+01 0.75666917833E+01 0.59148339345E+01 0.46046375987E+01 0.36034963200E+01
 0.28638471651E+01 0.23356671612E+01 0.19755730401E+01 0.17516454360E+01 0.16442181745E+01
 0.16442716208E+01 0.17517839316E+01 0.19757508346E+01 0.23358467731E+01 0.28640065709E+01
 0.36036162664E+01 0.46047048897E+01 0.59148641098E+01 0.75667346406E+01 0.95631772767E+01
 0.11860859718E+02 0.14353509802E+02 0.16859864983E+02 0.19127680004E+02 0.20867082523E+02