       N       E                     dE             d eps       ncg     rms          rms(c)
DAV:   1    -0.329102641823E+01   -0.32910E+01   -0.20557E+03   920   0.425E+02
DAV:   2    -0.118906033727E+02   -0.85996E+01   -0.82958E+01  1448   0.544E+01
DAV:   3    -0.119819779148E+02   -0.91375E-01   -0.91375E-01  1096   0.683E+00
DAV:   4    -0.119823079307E+02   -0.33002E-03   -0.33002E-03  1496   0.432E-01
DAV:   5    -0.119823081967E+02   -0.26594E-06   -0.26600E-06  1096   0.849E-03    0.280E+00
DAV:   6    -0.118442293214E+02    0.13808E+00   -0.83473E-02  1056   0.142E+00    0.164E+00
DAV:   7    -0.117764898190E+02    0.67740E-01   -0.15619E-01  1088   0.199E+00    0.139E-01
DAV:   8    -0.117766657138E+02   -0.17589E-03   -0.42235E-03   984   0.466E-01    0.263E-02
DAV:   9    -0.117766398386E+02    0.25875E-04   -0.13182E-04  1072   0.720E-02
   1 F= -.11776640E+02 E0= -.11776640E+02  d E =-.129511E-07
