LAMMPS (17 Nov 2016)
Reading data file ...
  orthogonal box = (-16.2239 -16.2239 -16.2239) to (24.2737 24.2737 24.2737)
  2 by 2 by 7 MPI processor grid
  reading atoms ...
  4000 atoms
  reading velocities ...
  4000 velocities
Reading potential file AlCu.eam.alloy with DATE: 2008-10-01
Neighbor list info ...
  1 neighbor list requests
  update every 1 steps, delay 10 steps, check yes
  max neighbors/atom: 2000, page size: 100000
  master list distance cutoff = 8.6825
  ghost atom cutoff = 8.6825
  binsize = 4.34125, bins = 10 10 10
Setting up Verlet run ...
  Unit style    : metal
  Current step  : 0
  Time step     : 0.001
Memory usage per processor = 3.68573 Mbytes
Step PotEng KinEng TotEng Enthalpy Temp Volume Press 
       0   -13202.856    180.91896   -13021.937   -13067.413          350    66418.488   -1096.9836 
    1000   -13063.668    162.74733   -12900.921   -13021.629    314.84575    68843.655   -2809.1963 
    2000   -13078.743    184.88691   -12893.857   -13050.983    357.67627    68869.959   -3655.3557 
    3000   -13084.646    181.85973   -12902.787   -12971.478    351.81998    68620.048   -1603.8465 
    4000   -13081.784    180.68065   -12901.103   -12899.764    349.53896    68487.562    31.334775 
    5000   -13066.673    172.12416   -12894.549   -12831.909    332.98586    68472.993    1465.6931 
    6000   -13084.787    185.02496   -12899.762   -12891.115    357.94333    68449.123    202.40726 
    7000    -13085.45    183.38549   -12902.065   -12906.722    354.77167    68475.557   -108.97632 
    8000   -13073.042    177.41802   -12895.624   -12886.115    343.22718    68546.286    222.26937 
    9000    -13082.62    184.49465   -12898.125   -12924.664    356.91741    68552.283   -620.27122 
   10000   -13084.918     182.3927   -12902.526   -12919.367    352.85104    68507.011   -393.86816 
   11000   -13075.285    180.06805   -12895.217   -12882.356    348.35386    68533.613     300.6677 
   12000   -13078.792    181.74185    -12897.05   -12887.598    351.59193    68508.846    221.04161 
   13000   -13083.567    184.54594   -12899.021   -12902.226    357.01664    68505.139     -74.9591 
   14000   -13080.437    181.53073   -12898.906   -12899.199     351.1835    68514.078   -6.8455862 
   15000    -13074.17    180.48385   -12893.686   -12894.621    349.15826    68575.531   -21.845918 
   16000   -13084.482    182.94482   -12901.538   -12915.993    353.91916    68509.382   -338.04743 
   17000   -13081.723    182.03548   -12899.688   -12910.088    352.15998    68525.607   -243.16768 
   18000   -13076.395    182.71135   -12893.683   -12891.234     353.4675    68552.726     57.24783 
   19000   -13077.258    186.44084   -12890.817   -12905.687    360.68245    68590.762   -347.34053 
   20000   -13079.392    180.25944   -12899.132   -12909.828    348.72411     68546.44   -249.99877 
   21000   -13079.365    178.27517    -12901.09   -12897.232     344.8854     68515.11    90.210574 
   22000   -13079.462    186.09025   -12893.372   -12903.475    360.00421    68559.527   -236.08435 
   23000   -13081.271    181.15484   -12900.117   -12893.471    350.45632    68492.633    155.44782 
   24000   -13078.612    178.77727   -12899.835   -12888.839    345.85674    68504.976    257.16629 
   25000   -13077.637    183.20927   -12894.427   -12897.791    354.43076    68558.067   -78.600615 
   26000   -13079.259    186.01589   -12893.243   -12919.859    359.86036    68593.616   -621.67769 
   27000   -13078.848    177.39241   -12901.455   -12910.222    343.17765    68541.158     -204.927 
   28000   -13080.141    183.58344   -12896.557   -12900.861    355.15461    68537.788   -100.61695 
   29000   -13079.151    185.74945   -12893.402   -12885.509     359.3449    68518.831    184.54323 
   30000   -13077.312    179.55674   -12897.755   -12873.717    347.36469    68492.383    562.29484 
   31000   -13085.624    184.33455    -12901.29   -12910.408    356.60768    68490.878   -213.29468 
   32000   -13075.461    178.21012   -12897.251   -12889.684    344.75957    68547.731    176.86003 
   33000   -13081.365    186.11851   -12895.247   -12936.023    360.05888    68604.647    -952.2954 
   34000   -13082.662    179.86629   -12902.796   -12934.502    347.96353    68566.836   -740.87028 
   35000    -13077.95    180.12862   -12897.822   -12902.723    348.47103    68555.194   -114.55626 
   36000   -13075.714    181.98898   -12893.725   -12857.423    352.07002    68485.736    849.25502 
   37000   -13081.122    180.87807   -12900.244   -12840.037     349.9209    68379.754    1410.6929 
   38000   -13079.667    178.72844   -12900.938     -12854.4    345.76228    68421.213    1089.7642 
   39000   -13075.473    180.44029   -12895.033   -12911.118    349.07397    68602.161   -375.66145 
   40000   -13079.094    181.14298   -12897.951   -12978.031    350.43337    68707.966   -1867.3563 
   41000   -13079.393    176.53824   -12902.855   -12971.428     341.5252    68681.012   -1599.6561 
   42000   -13079.985    177.92045   -12902.065   -12908.538    344.19917    68537.357   -151.31986 
   43000   -13080.037    184.60246   -12895.435   -12848.311    357.12599      68426.2    1103.3914 
   44000   -13080.573    179.14519   -12901.428   -12832.199    346.56852    68358.112    1622.5854 
   45000   -13083.972    178.33069   -12905.641   -12872.546    344.99281    68408.321    775.13307 
   46000   -13079.695    183.21628   -12896.479   -12923.003    354.44432    68595.266   -619.51787 
   47000   -13080.952    182.61754   -12898.335   -12948.395    353.28601    68628.007   -1168.6963 
   48000   -13085.237    179.13335   -12906.103   -12942.947    346.54562     68546.21   -861.16163 
   49000    -13078.57    182.33136   -12896.238   -12917.791    352.73237    68585.563   -503.47762 
   50000   -13081.714     182.9489   -12898.765    -12898.56    353.92705    68509.772    4.8007789 
   51000   -13083.164    180.54654   -12902.618   -12885.943    349.27953     68452.77    390.28183 
   52000   -13076.361    182.62315   -12893.738   -12883.132    353.29687    68540.406    247.93459 
   53000   -13079.546     180.1538   -12899.392   -12895.478    348.51974    68524.791    91.514672 
   54000   -13075.297    174.75415   -12900.543   -12888.302    338.07376    68539.057    286.14462 
   55000   -13080.384    181.62868   -12898.756   -12910.168    351.37299    68548.851   -266.73461 
   56000   -13076.317    180.57883   -12895.738   -12888.823      349.342    68550.582    161.63492 
   57000   -13077.705    182.64462    -12895.06   -12893.799    353.33841    68542.272    29.476869 
   58000   -13082.012    180.27483   -12901.737   -12896.852    348.75389    68492.751    114.27234 
   59000   -13079.991    184.51719   -12895.473   -12890.308    356.96101    68520.074    120.77795 
   60000   -13074.456    181.38125   -12893.075   -12873.367    350.89432    68535.872    460.73389 
Loop time of 6729.29 on 28 procs for 60000 steps with 4000 atoms

Performance: 0.770 ns/day, 31.154 hours/ns, 8.916 timesteps/s
96.3% CPU use with 28 MPI tasks x no OpenMP threads

MPI task timing breakdown:
Section |  min time  |  avg time  |  max time  |%varavg| %total
---------------------------------------------------------------
Pair    | 1325.6     | 1499.8     | 1625.2     | 213.2 | 22.29
Neigh   | 0.12364    | 0.14021    | 0.15443    |   2.5 |  0.00
Comm    | 1612.4     | 1782.5     | 2053       | 263.0 | 26.49
Output  | 4.6208     | 4.6976     | 4.7339     |   1.2 |  0.07
Modify  | 2687.5     | 2782.6     | 2901.3     |  82.7 | 41.35
Other   |            | 659.6      |            |       |  9.80

Nlocal:    142.857 ave 161 max 118 min
Histogram: 4 0 1 3 1 1 5 7 4 2
Nghost:    1904.14 ave 2037 max 1823 min
Histogram: 11 1 6 2 0 0 0 0 0 8
Neighs:    11260.8 ave 12933 max 9233 min
Histogram: 3 1 3 1 5 3 2 2 5 3

Total # of neighbors = 315301
Ave neighs/atom = 78.8252
Neighbor list builds = 322
Dangerous builds = 0
All done
Total wall time: 1:52:10
