diamond Si                              
   6.00000000000000     
     0.000000    0.490819    0.490819
     0.490819    0.000000    0.490819
     0.490819    0.490819    0.000000
   Si
     2
Direct
  0.875000  0.875000  0.875000
  0.125000  0.125000  0.125000
 
   32   32   32
  22.049      22.124      22.290      22.394      22.214      21.532      20.469      19.482      19.079      19.482    
  20.469      21.532      22.214      22.393      22.290      22.125      22.050      22.125      22.290      22.393    
  22.214      21.532      20.469      19.482      19.079      19.482      20.469      21.532      22.214      22.394    
  22.290      22.124      22.124      22.838      23.483      23.705      23.068      21.581      19.812      18.614    
  18.614      19.812      21.581      23.068      23.705      23.483      22.838      22.125      21.520      21.079    
  20.747      20.407      19.957      19.342      18.681      18.242      18.242      18.681      19.342      19.957    
  20.408      20.747      21.079      21.519      22.290      23.483      24.226      23.852      22.127      19.561    
  17.255      16.329      17.255      19.561      22.126      23.851      24.225      23.483      22.291      21.079    
  20.022      19.167      18.466      17.843      17.251      16.719      16.327      16.179      16.326      16.719    
  17.251      17.843      18.467      19.167      20.022      21.079      22.394      23.705      23.852      22.282    
  19.246      15.862      13.634      13.634      15.862      19.246      22.281      23.851      23.705      22.394    
  20.747      19.167      17.803      16.688      15.783      15.040      14.438      14.000      13.766      13.765    
  14.000      14.439      15.040      15.783      16.687      17.803      19.167      20.747      22.214      23.068    
  22.127      19.246      15.281      11.832      10.465      11.832      15.281      19.247      22.127      23.068    
  22.214      20.408      18.467      16.688      15.185      13.973      13.018      12.285      11.758      11.438    
  11.331      11.438      11.758      12.285      13.018      13.973      15.185      16.687      18.467      20.408    
  21.532      21.581      19.561      15.862      11.832      9.2078      9.2076      11.832      15.862      19.561    
  21.581      21.532      19.957      17.843      15.783      13.972      12.482      11.308      10.418      9.7777    
  9.3639      9.1614      9.1616      9.3642      9.7777      10.418      11.308      12.482      13.973      15.783    
  17.843      19.957      20.469      19.812      17.255      13.634      10.465      9.2076      10.465      13.634    
  17.255      19.813      20.470      19.342      17.251      15.040      13.018      11.308      9.9416      8.8983    
  8.1395      7.6286      7.3359      7.2409      7.3359      7.6286      8.1395      8.8982      9.9416      11.308    
  13.018      15.040      17.251      19.342      19.482      18.614      16.329      13.634      11.832      11.832    
  13.634      16.329      18.614      19.482      18.681      16.719      14.438      12.285      10.418      8.8984    
  7.7231      6.8561      6.2540      5.8778      5.6980      5.6980      5.8778      6.2539      6.8562      7.7231    
  8.8982      10.418      12.285      14.439      16.719      18.681      19.079      18.614      17.255      15.862    
  15.281      15.862      17.255      18.614      19.079      18.242      16.327      14.000      11.758      9.7776    
  8.1395      6.8561      5.8971      5.2158      4.7664      4.5125      4.4306      4.5125      4.7664      5.2158    
  5.8971      6.8562      8.1395      9.7777      11.758      14.000      16.326      18.242      19.482      19.812    
  19.561      19.246      19.247      19.561      19.813      19.482      18.242      16.179      13.766      11.438    
  9.3639      7.6285      6.2540      5.2158      4.4662      3.9545      3.6379      3.4870      3.4869      3.6378    
  3.9546      4.4664      5.2158      6.2539      7.6286      9.3642      11.438      13.765      16.179      18.242    
  20.469      21.581      22.126      22.281      22.127      21.581      20.470      18.681      16.327      13.766    
  11.331      9.1616      7.3359      5.8777      4.7664      3.9546      3.3876      3.0171      2.8083      2.7409    
  2.8083      3.0171      3.3875      3.9546      4.7664      5.8778      7.3359      9.1616      11.331      13.766    
  16.327      18.681      21.532      23.068      23.851      23.851      23.068      21.532      19.342      16.719    
  14.000      11.438      9.1616      7.2411      5.6980      4.5125      3.6379      3.0173      2.5975      2.3383    
  2.2146      2.2147      2.3384      2.5974      3.0171      3.6378      4.5125      5.6980      7.2409      9.1614    
  11.438      14.000      16.719      19.342      22.214      23.705      24.225      23.705      22.214      19.957    
  17.251      14.438      11.758      9.3639      7.3359      5.6980      4.4306      3.4869      2.8083      2.3384    
  2.0320      1.8589      1.8029      1.8589      2.0320      2.3384      2.8083      3.4869      4.4306      5.6980    
  7.3359      9.3639      11.758      14.438      17.251      19.957      22.393      23.483      23.483      22.394    
  20.408      17.843      15.040      12.285      9.7776      7.6285      5.8777      4.5125      3.4869      2.7408    
  2.2146      1.8589      1.6387      1.5333      1.5333      1.6387      1.8589      2.2147      2.7409      3.4870    
  4.5125      5.8778      7.6286      9.7777      12.285      15.040      17.843      20.407      22.290      22.838    
  22.291      20.747      18.467      15.783      13.018      10.418      8.1395      6.2540      4.7664      3.6379    
  2.8083      2.2146      1.8028      1.5333      1.3804      1.3309      1.3804      1.5333      1.8029      2.2146    
  2.8083      3.6379      4.7664      6.2540      8.1395      10.418      13.018      15.783      18.466      20.747    
  22.125      22.125      21.079      19.167      16.688      13.972      11.308      8.8984      6.8561      5.2158    
  3.9546      3.0173      2.3384      1.8589      1.5333      1.3309      1.2338      1.2338      1.3309      1.5333    
  1.8589      2.3383      3.0171      3.9545      5.2158      6.8561      8.8983      11.308      13.973      16.688    
  19.167      21.079      22.050      21.520      20.022      17.803      15.185      12.482      9.9416      7.7231    
  5.8971      4.4662      3.3876      2.5975      2.0320      1.6387      1.3804      1.2338      1.1862      1.2338    
  1.3804      1.6387      2.0320      2.5975      3.3876      4.4662      5.8971      7.7231      9.9416      12.482    
  15.185      17.803      20.022      21.520      22.125      21.079      19.167      16.688      13.973      11.308    
  8.8983      6.8561      5.2158      3.9545      3.0171      2.3383      1.8589      1.5333      1.3309      1.2338    
  1.2338      1.3309      1.5333      1.8589      2.3384      3.0173      3.9546      5.2158      6.8561      8.8984    
  11.308      13.972      16.688      19.167      21.079      22.125      22.290      20.747      18.466      15.783    
  13.018      10.418      8.1395      6.2540      4.7664      3.6379      2.8083      2.2146      1.8029      1.5333    
  1.3804      1.3309      1.3804      1.5333      1.8028      2.2146      2.8083      3.6379      4.7664      6.2540    
  8.1395      10.418      13.018      15.783      18.467      20.747      22.291      22.838      22.393      20.407    
  17.843      15.040      12.285      9.7777      7.6286      5.8778      4.5125      3.4870      2.7409      2.2147    
  1.8589      1.6387      1.5333      1.5333      1.6387      1.8589      2.2146      2.7408      3.4869      4.5125    
  5.8777      7.6285      9.7776      12.285      15.040      17.843      20.408      22.394      23.483      23.483    
  22.214      19.957      17.251      14.438      11.758      9.3639      7.3359      5.6980      4.4306      3.4869    
  2.8083      2.3384      2.0320      1.8589      1.8029      1.8589      2.0320      2.3384      2.8083      3.4869    
  4.4306      5.6980      7.3359      9.3639      11.758      14.438      17.251      19.957      22.214      23.705    
  24.225      23.705      21.532      19.342      16.719      14.000      11.438      9.1614      7.2409      5.6980    
  4.5125      3.6378      3.0171      2.5974      2.3384      2.2147      2.2146      2.3383      2.5975      3.0173    
  3.6379      4.5125      5.6980      7.2411      9.1616      11.438      14.000      16.719      19.342      21.532    
  23.068      23.851      23.851      23.068      20.469      18.681      16.327      13.766      11.331      9.1616    
  7.3359      5.8778      4.7664      3.9546      3.3875      3.0171      2.8083      2.7409      2.8083      3.0171    
  3.3876      3.9546      4.7664      5.8777      7.3359      9.1616      11.331      13.766      16.327      18.681    
  20.470      21.581      22.127      22.281      22.126      21.581      19.482      18.242      16.179      13.765    
  11.438      9.3642      7.6286      6.2539      5.2158      4.4664      3.9546      3.6378      3.4869      3.4870    
  3.6379      3.9545      4.4662      5.2158      6.2540      7.6285      9.3639      11.438      13.766      16.179    
  18.242      19.482      19.813      19.561      19.247      19.246      19.561      19.812      19.079      18.242    
  16.326      14.000      11.758      9.7777      8.1395      6.8562      5.8971      5.2158      4.7664      4.5125    
  4.4306      4.5125      4.7664      5.2158      5.8971      6.8561      8.1395      9.7776      11.758      14.000    
  16.327      18.242      19.079      18.614      17.255      15.862      15.281      15.862      17.255      18.614    
  19.482      18.681      16.719      14.439      12.285      10.418      8.8982      7.7231      6.8562      6.2539    
  5.8778      5.6980      5.6980      5.8778      6.2540      6.8561      7.7231      8.8984      10.418      12.285    
  14.438      16.719      18.681      19.482      18.614      16.329      13.634      11.832      11.832      13.634    
  16.329      18.614      20.469      19.342      17.251      15.040      13.018      11.308      9.9416      8.8982    
  8.1395      7.6286      7.3359      7.2409      7.3359      7.6286      8.1395      8.8983      9.9416      11.308    
  13.018      15.040      17.251      19.342      20.470      19.813      17.255      13.634      10.465      9.2076    
  10.465      13.634      17.255      19.812      21.532      19.957      17.843      15.783      13.973      12.482    
  11.308      10.418      9.7777      9.3642      9.1616      9.1614      9.3639      9.7777      10.418      11.308    
  12.482      13.972      15.783      17.843      19.957      21.532      21.581      19.561      15.862      11.832    
  9.2076      9.2078      11.832      15.862      19.561      21.581      22.214      20.408      18.467      16.687    
  15.185      13.973      13.018      12.285      11.758      11.438      11.331      11.438      11.758      12.285    
  13.018      13.973      15.185      16.688      18.467      20.408      22.214      23.068      22.127      19.247    
  15.281      11.832      10.465      11.832      15.281      19.246      22.127      23.068      22.394      20.747    
  19.167      17.803      16.687      15.783      15.040      14.439      14.000      13.765      13.766      14.000    
  14.438      15.040      15.783      16.688      17.803      19.167      20.747      22.394      23.705      23.851    
  22.281      19.246      15.862      13.634      13.634      15.862      19.246      22.282      23.852      23.705    
  22.290      21.079      20.022      19.167      18.467      17.843      17.251      16.719      16.326      16.179    
  16.327      16.719      17.251      17.843      18.466      19.167      20.022      21.079      22.291      23.483    
  24.225      23.851      22.126      19.561      17.255      16.329      17.255      19.561      22.127      23.852    
  24.226      23.483      22.124      21.519      21.079      20.747      20.408      19.957      19.342      18.681    
  18.242      18.242      18.681      19.342      19.957      20.407      20.747      21.079      21.520      22.125    
  22.838      23.483      23.705      23.068      21.581      19.812      18.614      18.614      19.812      21.581    
  23.068      23.705      23.483      22.838      22.125      22.837      23.482      23.704      23.068      21.582    
  19.813      18.614      18.614      19.812      21.581      23.068      23.705      23.483      22.838      22.125    
  21.520      21.079      20.747      20.407      19.957      19.342      18.681      18.242      18.242      18.681    
  19.342      19.957      20.408      20.748      21.080      21.520      22.837      24.059      24.778      24.294    
  22.380      19.590      17.101      16.104      17.101      19.590      22.380      24.295      24.779      24.060    
  22.838      21.592      20.507      19.629      18.909      18.263      17.647      17.088      16.672      16.515    
  16.672      17.088      17.648      18.264      18.909      19.629      20.507      21.592      23.482      24.778    
  24.708      22.703      19.086      15.137      12.560      12.560      15.137      19.085      22.702      24.708    
  24.779      23.483      21.753      20.088      18.652      17.479      16.524      15.733      15.087      14.611    
  14.356      14.355      14.611      15.087      15.733      16.525      17.479      18.653      20.088      21.753    
  23.704      24.294      22.703      18.842      13.789      9.4772      7.7811      9.4774      13.789      18.842    
  22.702      24.294      23.705      21.856      19.774      17.861      16.244      14.940      13.909      13.110    
  12.530      12.174      12.054      12.174      12.529      13.110      13.909      14.940      16.245      17.861    
  19.774      21.856      23.068      22.380      19.086      13.789      8.2593      4.7212      4.7213      8.2594    
  13.789      19.085      22.379      23.068      21.704      19.460      17.216      15.235      13.603      12.316    
  11.334      10.623      10.159      9.9301      9.9301      10.159      10.623      11.334      12.316      13.603    
  15.235      17.216      19.460      21.704      21.582      19.590      15.137      9.4772      4.7212      2.8636    
  4.7215      9.4773      15.137      19.589      21.581      21.093      19.056      16.652      14.422      12.526    
  11.008      9.8447      8.9944      8.4181      8.0860      7.9779      8.0861      8.4182      8.9945      9.8448    
  11.008      12.527      14.422      16.652      19.056      21.093      19.813      17.101      12.560      7.7811    
  4.7213      4.7215      7.7814      12.560      17.101      19.812      20.123      18.528      16.129      13.764    
  11.685      9.9819      8.6596      7.6807      6.9979      6.5696      6.3643      6.3642      6.5696      6.9980    
  7.6808      8.6596      9.9818      11.685      13.764      16.129      18.528      20.123      18.614      16.104    
  12.560      9.4774      8.2594      9.4773      12.560      16.104      18.614      19.215      17.965      15.667    
  13.243      11.048      9.2094      7.7584      6.6698      5.8939      5.3810      5.0909      4.9973      5.0909    
  5.3810      5.8939      6.6698      7.7584      9.2093      11.048      13.243      15.667      17.965      19.215    
  18.614      17.101      15.137      13.789      13.789      15.137      17.101      18.614      18.843      17.591    
  15.336      12.870      10.598      8.6599      7.1071      5.9270      5.0725      4.4883      4.1269      3.9548    
  3.9548      4.1269      4.4883      5.0725      5.9271      7.1071      8.6599      10.598      12.870      15.336    
  17.591      18.843      19.812      19.590      19.085      18.842      19.085      19.589      19.812      19.215    
  17.591      15.214      12.673      10.328      8.3088      6.6717      5.4132      4.4904      3.8453      3.4244    
  3.1877      3.1114      3.1877      3.4244      3.8453      4.4904      5.4133      6.6718      8.3090      10.328    
  12.673      15.214      17.591      19.214      21.581      22.380      22.702      22.702      22.379      21.581    
  20.123      17.965      15.336      12.673      10.239      8.1387      6.4239      5.0931      4.1067      3.4062    
  2.9334      2.6425      2.5040      2.5041      2.6426      2.9333      3.4061      4.1067      5.0932      6.4239    
  8.1386      10.239      12.673      15.336      17.965      20.123      23.068      24.295      24.708      24.294    
  23.068      21.093      18.528      15.667      12.870      10.328      8.1387      6.3439      4.9405      3.8898    
  3.1338      2.6117      2.2726      2.0817      2.0200      2.0817      2.2726      2.6116      3.1337      3.8898    
  4.9404      6.3437      8.1386      10.328      12.870      15.667      18.528      21.093      23.705      24.779    
  24.779      23.705      21.704      19.056      16.129      13.243      10.598      8.3088      6.4239      4.9405    
  3.8199      3.0037      2.4295      2.0431      1.8050      1.6913      1.6912      1.8050      2.0431      2.4295    
  3.0037      3.8198      4.9405      6.4239      8.3089      10.598      13.243      16.129      19.056      21.704    
  23.483      24.060      23.483      21.856      19.460      16.652      13.764      11.048      8.6599      6.6717    
  5.0931      3.8898      3.0037      2.3705      1.9331      1.6480      1.4869      1.4347      1.4868      1.6480    
  1.9332      2.3706      3.0037      3.8899      5.0932      6.6718      8.6599      11.048      13.764      16.652    
  19.460      21.856      22.838      22.838      21.753      19.774      17.216      14.422      11.685      9.2094    
  7.1071      5.4132      4.1067      3.1338      2.4295      1.9331      1.5971      1.3887      1.2888      1.2888    
  1.3887      1.5971      1.9332      2.4295      3.1338      4.1066      5.4132      7.1071      9.2094      11.685    
  14.422      17.216      19.774      21.753      22.125      21.592      20.088      17.861      15.235      12.526    
  9.9819      7.7584      5.9270      4.4904      3.4062      2.6117      2.0431      1.6480      1.3887      1.2415    
  1.1937      1.2415      1.3887      1.6480      2.0431      2.6116      3.4061      4.4903      5.9270      7.7584    
  9.9819      12.527      15.235      17.861      20.088      21.592      21.520      20.507      18.652      16.244    
  13.603      11.008      8.6596      6.6698      5.0725      3.8453      2.9334      2.2726      1.8050      1.4869    
  1.2888      1.1937      1.1937      1.2888      1.4868      1.8050      2.2726      2.9335      3.8453      5.0725    
  6.6698      8.6596      11.008      13.603      16.244      18.652      20.507      21.520      21.079      19.629    
  17.479      14.940      12.316      9.8447      7.6807      5.8939      4.4883      3.4244      2.6425      2.0817    
  1.6913      1.4347      1.2888      1.2415      1.2888      1.4346      1.6912      2.0817      2.6426      3.4245    
  4.4883      5.8939      7.6808      9.8449      12.316      14.940      17.479      19.629      21.079      21.592    
  20.747      18.909      16.524      13.909      11.334      8.9944      6.9979      5.3810      4.1269      3.1877    
  2.5040      2.0200      1.6912      1.4868      1.3887      1.3887      1.4868      1.6912      2.0200      2.5039    
  3.1877      4.1269      5.3810      6.9979      8.9945      11.334      13.909      16.524      18.909      20.747    
  21.753      21.753      20.407      18.263      15.733      13.110      10.623      8.4181      6.5696      5.0909    
  3.9548      3.1114      2.5041      2.0817      1.8050      1.6480      1.5971      1.6480      1.8050      2.0817    
  2.5039      3.1112      3.9547      5.0909      6.5696      8.4180      10.622      13.110      15.733      18.264    
  20.407      21.856      22.369      21.856      19.957      17.647      15.087      12.530      10.159      8.0860    
  6.3643      4.9973      3.9548      3.1877      2.6426      2.2726      2.0431      1.9332      1.9332      2.0431    
  2.2726      2.6426      3.1877      3.9547      4.9973      6.3643      8.0860      10.158      12.530      15.087    
  17.648      19.957      21.704      22.643      22.643      21.704      19.342      17.088      14.611      12.174    
  9.9301      7.9779      6.3642      5.0909      4.1269      3.4244      2.9333      2.6116      2.4295      2.3706    
  2.4295      2.6116      2.9335      3.4245      4.1269      5.0909      6.3643      7.9780      9.9301      12.174    
  14.611      17.088      19.342      21.093      22.182      22.550      22.182      21.093      18.681      16.672    
  14.356      12.054      9.9301      8.0861      6.5696      5.3810      4.4883      3.8453      3.4061      3.1337    
  3.0037      3.0037      3.1338      3.4061      3.8453      4.4883      5.3810      6.5696      8.0860      9.9301    
  12.054      14.356      16.672      18.681      20.123      20.965      21.328      21.328      20.965      20.123    
  18.242      16.515      14.355      12.174      10.159      8.4182      6.9980      5.8939      5.0725      4.4904    
  4.1067      3.8898      3.8198      3.8899      4.1066      4.4903      5.0725      5.8939      6.9979      8.4180    
  10.158      12.174      14.356      16.515      18.242      19.215      19.474      19.360      19.266      19.360    
  19.473      19.214      18.242      16.672      14.611      12.529      10.623      8.9945      7.6808      6.6698    
  5.9271      5.4133      5.0932      4.9404      4.9405      5.0932      5.4132      5.9270      6.6698      7.6808    
  8.9945      10.622      12.530      14.611      16.672      18.242      18.843      18.451      17.543      16.831    
  16.831      17.543      18.450      18.843      18.681      17.088      15.087      13.110      11.334      9.8448    
  8.6596      7.7584      7.1071      6.6718      6.4239      6.3437      6.4239      6.6718      7.1071      7.7584    
  8.6596      9.8449      11.334      13.110      15.087      17.088      18.681      19.215      18.451      16.806    
  15.192      14.526      15.192      16.806      18.451      19.215      19.342      17.648      15.733      13.909    
  12.316      11.008      9.9818      9.2093      8.6599      8.3090      8.1386      8.1386      8.3089      8.6599    
  9.2094      9.9819      11.008      12.316      13.909      15.733      17.648      19.342      20.123      19.474    
  17.543      15.192      13.597      13.597      15.192      17.543      19.473      20.123      19.957      18.264    
  16.525      14.940      13.603      12.527      11.685      11.048      10.598      10.328      10.239      10.328    
  10.598      11.048      11.685      12.527      13.603      14.940      16.524      18.264      19.957      21.093    
  20.965      19.360      16.831      14.526      13.597      14.526      16.831      19.360      20.965      21.092    
  20.408      18.909      17.479      16.245      15.235      14.422      13.764      13.243      12.870      12.673    
  12.673      12.870      13.243      13.764      14.422      15.235      16.244      17.479      18.909      20.407    
  21.704      22.182      21.328      19.266      16.831      15.192      15.192      16.831      19.266      21.328    
  22.181      21.704      20.748      19.629      18.653      17.861      17.216      16.652      16.129      15.667    
  15.336      15.214      15.336      15.667      16.129      16.652      17.216      17.861      18.652      19.629    
  20.747      21.856      22.643      22.550      21.328      19.360      17.543      16.806      17.543      19.360    
  21.328      22.549      22.642      21.856      21.080      20.507      20.088      19.774      19.460      19.056    
  18.528      17.965      17.591      17.591      17.965      18.528      19.056      19.460      19.774      20.088    
  20.507      21.079      21.753      22.369      22.643      22.182      20.965      19.473      18.450      18.451    
  19.473      20.965      22.181      22.642      22.370      21.754      21.520      21.592      21.753      21.856    
  21.704      21.093      20.123      19.215      18.843      19.214      20.123      21.093      21.704      21.856    
  21.753      21.592      21.520      21.592      21.753      21.856      21.704      21.093      20.123      19.214    
  18.843      19.215      20.123      21.092      21.704      21.856      21.754      21.593      22.291      23.483    
  24.225      23.851      22.126      19.561      17.255      16.329      17.255      19.561      22.127      23.851    
  24.226      23.483      22.291      21.079      20.022      19.167      18.466      17.843      17.251      16.719    
  16.326      16.179      16.327      16.719      17.251      17.842      18.466      19.167      20.022      21.079    
  23.483      24.779      24.708      22.701      19.084      15.137      12.560      12.560      15.137      19.085    
  22.702      24.709      24.779      23.483      21.753      20.088      18.652      17.479      16.524      15.733    
  15.087      14.611      14.356      14.355      14.611      15.087      15.733      16.524      17.478      18.652    
  20.089      21.754      24.225      24.708      22.867      18.639      13.180      8.5485      6.7300      8.5482    
  13.180      18.639      22.868      24.708      24.225      22.370      20.237      18.275      16.618      15.281    
  14.222      13.400      12.800      12.432      12.307      12.432      12.800      13.400      14.222      15.281    
  16.618      18.275      20.237      22.370      23.851      22.701      18.639      12.392      5.9757      1.8979    
  1.8976      5.9753      12.392      18.639      22.702      23.851      22.643      20.342      17.996      15.921    
  14.211      12.862      11.830      11.079      10.587      10.343      10.344      10.587      11.079      11.830    
  12.861      14.211      15.921      17.996      20.342      22.643      22.126      19.084      13.180      5.9757    
 0.22543E-01 -2.2880     0.22273E-01  5.9755      13.181      19.085      22.127      22.182      20.255      17.730    
  15.359      13.338      11.718      10.474      9.5618      8.9406      8.5814      8.4642      8.5814      8.9406    
  9.5617      10.474      11.718      13.338      15.359      17.730      20.256      22.182      19.561      15.137    
  8.5485      1.8979     -2.2880     -2.2881      1.8977      8.5486      15.138      19.561      20.965      19.822    
  17.404      14.883      12.643      10.800      9.3667      8.3025      7.5575      7.0886      6.8634      6.8634    
  7.0886      7.5575      8.3026      9.3669      10.801      12.643      14.883      17.404      19.822      20.965    
  17.255      12.560      6.7300      1.8976     0.22273E-01  1.8977      6.7301      12.560      17.255      19.473    
  19.093      17.007      14.458      12.094      10.091      8.5025      7.3066      6.4519      5.8854      5.5645    
  5.4609      5.5645      5.8855      6.4519      7.3066      8.5025      10.091      12.094      14.458      17.006    
  19.093      19.473      16.329      12.560      8.5482      5.9753      5.9755      8.5486      12.560      16.329    
  18.451      18.394      16.599      14.094      11.672      9.5639      7.8574      6.5532      5.6057      4.9568    
  4.5551      4.3637      4.3636      4.5549      4.9568      5.6058      6.5531      7.8573      9.5638      11.672    
  14.094      16.599      18.394      18.451      17.255      15.137      13.180      12.392      13.181      15.138    
  17.255      18.451      18.105      16.329      13.839      11.377      9.1989      7.4040      6.0118      4.9863    
  4.2683      3.7998      3.5366      3.4518      3.5366      3.7998      4.2683      4.9863      6.0118      7.4040    
  9.1989      11.377      13.839      16.329      18.105      18.451      19.561      19.085      18.639      18.639    
  19.085      19.561      19.473      18.394      16.329      13.747      11.225      8.9843      7.1179      5.6520    
  4.5586      3.7808      3.2562      2.9339      2.7808      2.7809      2.9341      3.2562      3.7807      4.5586    
  5.6521      7.1181      8.9843      11.225      13.746      16.329      18.394      19.473      22.127      22.702    
  22.868      22.702      22.127      20.965      19.093      16.599      13.839      11.225      8.9135      6.9804    
  5.4482      4.2924      3.4588      2.8838      2.5115      2.3024      2.2350      2.3024      2.5114      2.8838    
  3.4588      4.2924      5.4482      6.9804      8.9135      11.225      13.839      16.599      19.093      20.965    
  23.851      24.709      24.708      23.851      22.182      19.822      17.007      14.094      11.377      8.9843    
  6.9804      5.3825      4.1654      3.2764      2.6518      2.2331      1.9760      1.8535      1.8535      1.9759    
  2.2330      2.6518      3.2764      4.1653      5.3823      6.9803      8.9843      11.378      14.094      17.007    
  19.822      22.182      24.226      24.779      24.225      22.643      20.255      17.404      14.458      11.672    
  9.1989      7.1179      5.4482      4.1654      3.2174      2.5406      2.0748      1.7724      1.6020      1.5469    