   2   2   0   0
  0.2553976E+02  0.4164734E-09  0.4164734E-09  0.4164734E-09  0.5000000E-15
  1.000000000000000E-004
  CAR 
 diamond Si                              
     12.33579049     -7.91999767  301      3.85257373      1.00000000
     -7.920  0.0000E+00  0.0000E+00
     -7.852  0.0000E+00  0.0000E+00
     -7.785  0.0000E+00  0.0000E+00
     -7.717  0.0000E+00  0.0000E+00
     -7.650  0.0000E+00  0.0000E+00
     -7.582  0.0000E+00  0.0000E+00
     -7.515  0.0000E+00  0.0000E+00
     -7.447  0.9772E-15  0.6598E-16
     -7.380  0.8749E-12  0.5914E-13
     -7.312  0.3212E-09  0.2174E-10
     -7.245  0.4873E-07  0.3312E-08
     -7.177  0.3110E-05  0.2133E-06
     -7.110  0.8694E-04  0.6083E-05
     -7.042  0.1167E-02  0.8488E-04
     -6.975  0.8684E-02  0.6712E-03
     -6.907  0.3880E-01  0.3291E-02
     -6.840  0.9840E-01  0.9935E-02
     -6.772  0.1445E+00  0.1969E-01
     -6.705  0.1806E+00  0.3188E-01
     -6.637  0.2660E+00  0.4984E-01
     -6.570  0.3172E+00  0.7126E-01
     -6.502  0.2521E+00  0.8828E-01
     -6.435  0.2532E+00  0.1054E+00
     -6.367  0.4006E+00  0.1324E+00
     -6.300  0.4675E+00  0.1640E+00
     -6.232  0.4312E+00  0.1931E+00
     -6.164  0.4193E+00  0.2214E+00
     -6.097  0.3675E+00  0.2462E+00
     -6.029  0.3542E+00  0.2702E+00
     -5.962  0.5591E+00  0.3079E+00
     -5.894  0.7149E+00  0.3562E+00
     -5.827  0.6088E+00  0.3973E+00
     -5.759  0.5685E+00  0.4357E+00
     -5.692  0.5649E+00  0.4738E+00
     -5.624  0.4485E+00  0.5041E+00
     -5.557  0.4791E+00  0.5364E+00
     -5.489  0.7933E+00  0.5900E+00
     -5.422  0.1033E+01  0.6597E+00
     -5.354  0.9484E+00  0.7238E+00
     -5.287  0.8177E+00  0.7790E+00
     -5.219  0.7402E+00  0.8289E+00
     -5.152  0.6488E+00  0.8727E+00
     -5.084  0.8144E+00  0.9277E+00
     -5.017  0.1328E+01  0.1017E+01
     -4.949  0.1533E+01  0.1121E+01
     -4.882  0.1135E+01  0.1198E+01
     -4.814  0.8955E+00  0.1258E+01
     -4.747  0.8110E+00  0.1313E+01
     -4.679  0.6246E+00  0.1355E+01
     -4.612  0.7964E+00  0.1409E+01
     -4.544  0.1141E+01  0.1486E+01
     -4.477  0.1154E+01  0.1564E+01
     -4.409  0.8066E+00  0.1618E+01
     -4.341  0.5346E+00  0.1654E+01
     -4.274  0.4939E+00  0.1688E+01
     -4.206  0.5417E+00  0.1724E+01
     -4.139  0.7754E+00  0.1777E+01
     -4.071  0.8629E+00  0.1835E+01
     -4.004  0.6068E+00  0.1876E+01
     -3.936  0.3615E+00  0.1900E+01
     -3.869  0.2776E+00  0.1919E+01
     -3.801  0.2990E+00  0.1939E+01
     -3.734  0.3261E+00  0.1961E+01
     -3.666  0.3013E+00  0.1981E+01
     -3.599  0.2287E+00  0.1997E+01
     -3.531  0.1713E+00  0.2008E+01
     -3.464  0.1549E+00  0.2019E+01
     -3.396  0.1922E+00  0.2032E+01
     -3.329  0.2194E+00  0.2047E+01
     -3.261  0.2031E+00  0.2060E+01
     -3.194  0.2488E+00  0.2077E+01
     -3.126  0.3564E+00  0.2101E+01
     -3.059  0.5910E+00  0.2141E+01
     -2.991  0.8229E+00  0.2197E+01
     -2.924  0.7836E+00  0.2250E+01
     -2.856  0.5426E+00  0.2286E+01
     -2.789  0.3981E+00  0.2313E+01
     -2.721  0.5001E+00  0.2347E+01
     -2.653  0.7510E+00  0.2398E+01
     -2.586  0.1272E+01  0.2484E+01
     -2.518  0.1641E+01  0.2594E+01
     -2.451  0.1451E+01  0.2692E+01
     -2.383  0.1203E+01  0.2774E+01
     -2.316  0.1026E+01  0.2843E+01
     -2.248  0.8036E+00  0.2897E+01
     -2.181  0.7707E+00  0.2949E+01
     -2.113  0.8129E+00  0.3004E+01
     -2.046  0.8538E+00  0.3062E+01
     -1.978  0.8919E+00  0.3122E+01
     -1.911  0.8010E+00  0.3176E+01
     -1.843  0.5516E+00  0.3213E+01
     -1.776  0.2899E+00  0.3233E+01
     -1.708  0.2812E+00  0.3252E+01
     -1.641  0.5604E+00  0.3290E+01
     -1.573  0.7585E+00  0.3341E+01
     -1.506  0.5609E+00  0.3379E+01
     -1.438  0.2726E+00  0.3397E+01
     -1.371  0.2914E+00  0.3417E+01
     -1.303  0.5219E+00  0.3452E+01
     -1.236  0.6295E+00  0.3495E+01
     -1.168  0.4614E+00  0.3526E+01
     -1.101  0.2472E+00  0.3542E+01
     -1.033  0.2143E+00  0.3557E+01
     -0.966  0.2245E+00  0.3572E+01
     -0.898  0.2210E+00  0.3587E+01
     -0.830  0.2313E+00  0.3603E+01
     -0.763  0.2252E+00  0.3618E+01
     -0.695  0.3044E+00  0.3638E+01
     -0.628  0.4405E+00  0.3668E+01
     -0.560  0.4615E+00  0.3699E+01
     -0.493  0.3230E+00  0.3721E+01
     -0.425  0.2447E+00  0.3738E+01
     -0.358  0.1961E+00  0.3751E+01
     -0.290  0.8821E-01  0.3757E+01
     -0.223  0.2193E-01  0.3758E+01
     -0.155  0.3668E-01  0.3761E+01
     -0.088  0.1470E+00  0.3771E+01
     -0.020  0.3028E+00  0.3791E+01
      0.047  0.3432E+00  0.3814E+01
      0.115  0.2963E+00  0.3834E+01
      0.182  0.4268E+00  0.3863E+01
      0.250  0.7937E+00  0.3917E+01
      0.317  0.1185E+01  0.3997E+01
      0.385  0.1394E+01  0.4091E+01
      0.452  0.1432E+01  0.4187E+01
      0.520  0.1676E+01  0.4301E+01
      0.587  0.1882E+01  0.4428E+01
      0.655  0.1535E+01  0.4531E+01
      0.722  0.1089E+01  0.4605E+01
      0.790  0.7645E+00  0.4656E+01
      0.858  0.8337E+00  0.4713E+01
      0.925  0.1320E+01  0.4802E+01
      0.993  0.1579E+01  0.4908E+01
      1.060  0.1533E+01  0.5012E+01
      1.128  0.1440E+01  0.5109E+01
      1.195  0.1524E+01  0.5212E+01
      1.263  0.1836E+01  0.5336E+01
      1.330  0.2029E+01  0.5473E+01
      1.398  0.1946E+01  0.5604E+01
      1.465  0.1877E+01  0.5731E+01
      1.533  0.1784E+01  0.5852E+01
      1.600  0.1570E+01  0.5958E+01
      1.668  0.1581E+01  0.6064E+01
      1.735  0.1751E+01  0.6183E+01
      1.803  0.1789E+01  0.6303E+01
      1.870  0.1650E+01  0.6415E+01
      1.938  0.1438E+01  0.6512E+01
      2.005  0.1546E+01  0.6616E+01
      2.073  0.1851E+01  0.6741E+01
      2.140  0.1784E+01  0.6862E+01
      2.208  0.1528E+01  0.6965E+01
      2.275  0.1478E+01  0.7065E+01
      2.343  0.1655E+01  0.7176E+01
      2.410  0.1606E+01  0.7285E+01
      2.478  0.1195E+01  0.7365E+01
      2.545  0.1051E+01  0.7436E+01
      2.613  0.1350E+01  0.7527E+01
      2.681  0.1301E+01  0.7615E+01
      2.748  0.7777E+00  0.7668E+01
      2.816  0.6166E+00  0.7709E+01
      2.883  0.8871E+00  0.7769E+01
      2.951  0.8909E+00  0.7829E+01
      3.018  0.5113E+00  0.7864E+01
      3.086  0.2558E+00  0.7881E+01
      3.153  0.3257E+00  0.7903E+01
      3.221  0.4105E+00  0.7931E+01
      3.288  0.2684E+00  0.7949E+01
      3.356  0.1559E+00  0.7960E+01
      3.423  0.2134E+00  0.7974E+01
      3.491  0.2183E+00  0.7989E+01
      3.558  0.1139E+00  0.7996E+01
      3.626  0.3942E-01  0.7999E+01
      3.693  0.1093E-01  0.8000E+01
      3.761  0.1806E-02  0.8000E+01
      3.828  0.1384E-03  0.8000E+01
      3.896  0.1932E-04  0.8000E+01
      3.963  0.4318E-03  0.8000E+01
      4.031  0.5330E-02  0.8000E+01
      4.098  0.2855E-01  0.8002E+01
      4.166  0.7116E-01  0.8007E+01
      4.233  0.1021E+00  0.8014E+01
      4.301  0.1243E+00  0.8022E+01
      4.369  0.1464E+00  0.8032E+01
      4.436  0.1593E+00  0.8043E+01
      4.504  0.2367E+00  0.8059E+01
      4.571  0.3791E+00  0.8085E+01
      4.639  0.4343E+00  0.8114E+01
      4.706  0.5496E+00  0.8151E+01
      4.774  0.8388E+00  0.8208E+01
      4.841  0.1030E+01  0.8277E+01
      4.909  0.1089E+01  0.8351E+01
      4.976  0.1274E+01  0.8437E+01
      5.044  0.1311E+01  0.8525E+01
      5.111  0.1026E+01  0.8595E+01
      5.179  0.1225E+01  0.8677E+01
      5.246  0.2098E+01  0.8819E+01
      5.314  0.2454E+01  0.8985E+01
      5.381  0.1904E+01  0.9113E+01
      5.449  0.1653E+01  0.9225E+01
      5.516  0.1871E+01  0.9351E+01
      5.584  0.1904E+01  0.9480E+01
      5.651  0.1769E+01  0.9599E+01
      5.719  0.1775E+01  0.9719E+01
      5.786  0.1537E+01  0.9823E+01
      5.854  0.1043E+01  0.9893E+01
      5.921  0.9296E+00  0.9956E+01
      5.989  0.8870E+00  0.1002E+02
      6.056  0.6188E+00  0.1006E+02
      6.124  0.5636E+00  0.1010E+02
      6.192  0.7643E+00  0.1015E+02
      6.259  0.1147E+01  0.1022E+02
      6.327  0.1676E+01  0.1034E+02
      6.394  0.1926E+01  0.1047E+02
      6.462  0.1642E+01  0.1058E+02
      6.529  0.1545E+01  0.1068E+02
      6.597  0.2004E+01  0.1082E+02
      6.664  0.2448E+01  0.1098E+02
      6.732  0.2383E+01  0.1114E+02
      6.799  0.1883E+01  0.1127E+02
      6.867  0.1488E+01  0.1137E+02
      6.934  0.1566E+01  0.1148E+02
      7.002  0.1865E+01  0.1160E+02
      7.069  0.1882E+01  0.1173E+02
      7.137  0.1716E+01  0.1185E+02
      7.204  0.1629E+01  0.1196E+02
      7.272  0.1638E+01  0.1207E+02
      7.339  0.1610E+01  0.1218E+02
      7.407  0.1338E+01  0.1227E+02
      7.474  0.7849E+00  0.1232E+02
      7.542  0.3877E+00  0.1235E+02
      7.609  0.4312E+00  0.1237E+02
      7.677  0.1084E+01  0.1245E+02
      7.744  0.2140E+01  0.1259E+02
      7.812  0.2631E+01  0.1277E+02
      7.880  0.2224E+01  0.1292E+02
      7.947  0.1809E+01  0.1304E+02
      8.015  0.2045E+01  0.1318E+02
      8.082  0.2320E+01  0.1334E+02
      8.150  0.1843E+01  0.1346E+02
      8.217  0.1306E+01  0.1355E+02
      8.285  0.1158E+01  0.1363E+02
      8.352  0.1224E+01  0.1371E+02
      8.420  0.1333E+01  0.1380E+02
      8.487  0.1205E+01  0.1388E+02
      8.555  0.9455E+00  0.1395E+02
      8.622  0.9741E+00  0.1401E+02
      8.690  0.1422E+01  0.1411E+02
      8.757  0.1728E+01  0.1422E+02
      8.825  0.1440E+01  0.1432E+02
      8.892  0.1038E+01  0.1439E+02
      8.960  0.1107E+01  0.1447E+02
      9.027  0.1554E+01  0.1457E+02
      9.095  0.1685E+01  0.1468E+02
      9.162  0.1165E+01  0.1476E+02
      9.230  0.7062E+00  0.1481E+02
      9.297  0.7019E+00  0.1486E+02
      9.365  0.7332E+00  0.1491E+02
      9.432  0.7729E+00  0.1496E+02
      9.500  0.8929E+00  0.1502E+02
      9.567  0.8964E+00  0.1508E+02
      9.635  0.9389E+00  0.1514E+02
      9.703  0.8746E+00  0.1520E+02
      9.770  0.5917E+00  0.1524E+02
      9.838  0.6171E+00  0.1528E+02
      9.905  0.9134E+00  0.1535E+02
      9.973  0.1067E+01  0.1542E+02
     10.040  0.1100E+01  0.1549E+02
     10.108  0.1103E+01  0.1557E+02
     10.175  0.1000E+01  0.1563E+02
     10.243  0.9084E+00  0.1570E+02
     10.310  0.9099E+00  0.1576E+02
     10.378  0.7128E+00  0.1581E+02
     10.445  0.4041E+00  0.1583E+02
     10.513  0.2689E+00  0.1585E+02
     10.580  0.2261E+00  0.1587E+02
     10.648  0.2479E+00  0.1588E+02
     10.715  0.2393E+00  0.1590E+02
     10.783  0.1221E+00  0.1591E+02
     10.850  0.2896E-01  0.1591E+02
     10.918  0.1148E-01  0.1591E+02
     10.985  0.5659E-01  0.1591E+02
     11.053  0.1595E+00  0.1593E+02
     11.120  0.2084E+00  0.1594E+02
     11.188  0.1912E+00  0.1595E+02
     11.255  0.2345E+00  0.1597E+02
     11.323  0.2471E+00  0.1598E+02
     11.391  0.1586E+00  0.1600E+02
     11.458  0.5830E-01  0.1600E+02
     11.526  0.1101E-01  0.1600E+02
     11.593  0.9592E-03  0.1600E+02
     11.661  0.3630E-04  0.1600E+02
     11.728  0.5792E-06  0.1600E+02
     11.796  0.3839E-08  0.1600E+02
     11.863  0.1047E-10  0.1600E+02
     11.931  0.1171E-13  0.1600E+02
     11.998  0.0000E+00  0.1600E+02
     12.066  0.0000E+00  0.1600E+02
     12.133  0.0000E+00  0.1600E+02
     12.201  0.0000E+00  0.1600E+02
     12.268  0.0000E+00  0.1600E+02
     12.336  0.0000E+00  0.1600E+02
