    2    2    1    1
  0.2553976E+02  0.4164734E-09  0.4164734E-09  0.4164734E-09  0.5000000E-15
  1.000000000000000E-004
  CAR 
 diamond Si                              
      8     56      8
 
  0.0000000E+00  0.0000000E+00  0.0000000E+00  0.7513148E-03
    1       -6.919998
    2        3.558698
    3        3.558739
    4        3.558739
    5        4.227201
    6        5.940673
    7        5.940698
    8        5.940698
 
  0.9090909E-01  0.0000000E+00  0.0000000E+00  0.6010518E-02
    1       -6.832995
    2        2.397984
    3        3.425748
    4        3.425784
    5        4.862838
    6        6.132680
    7        6.132713
    8        6.309478
 
  0.1818182E+00  0.0000000E+00  0.0000000E+00  0.6010518E-02
    1       -6.575794
    2        0.936857
    3        3.149829
    4        3.149865
    5        4.799540
    6        6.529930
    7        6.529982
    8        7.522008
 
  0.2727273E+00  0.0000000E+00  0.0000000E+00  0.6010518E-02
    1       -6.165716
    2       -0.432479
    3        2.878075
    4        2.878114
    5        4.519190
    6        6.820304
    7        6.820382
    8        8.940726
 
  0.3636364E+00  0.0000000E+00  0.0000000E+00  0.6010518E-02
    1       -5.654033
    2       -1.603798
    3        2.679371
    4        2.679410
    5        4.286777
    6        6.886643
    7        6.886733
    8       10.231641
 
  0.4545455E+00  0.0000000E+00  0.0000000E+00  0.6010518E-02
    1       -5.208293
    2       -2.384692
    3        2.576240
    4        2.576282
    5        4.161929
    6        6.857447
    7        6.857551
    8       10.610602
 
  0.9090909E-01  0.9090909E-01  0.0000000E+00  0.4507889E-02
    1       -6.803750
    2        2.370743
    3        3.183009
    4        3.183040
    5        5.371523
    6        5.666638
    7        6.454753
    8        6.454776
 
  0.1818182E+00  0.9090909E-01  0.0000000E+00  0.1803156E-01
    1       -6.602235
    2        1.259328
    3        2.866331
    4        2.929107
    5        5.492253
    6        5.840483
    7        6.937535
    8        7.288259
 
  0.2727273E+00  0.9090909E-01  0.0000000E+00  0.1803156E-01
    1       -6.240317
    2       -0.049945
    3        2.591643
    4        2.599292
    5        5.249465
    6        6.301991
    7        7.291755
    8        8.203190
 
  0.3636364E+00  0.9090909E-01  0.0000000E+00  0.1803156E-01
    1       -5.752743
    2       -1.256903
    3        2.263361
    4        2.435093
    5        5.002968
    6        6.608063
    7        7.356273
    8        9.023657
 
  0.4545455E+00  0.9090909E-01  0.0000000E+00  0.1803156E-01
    1       -5.250864
    2       -2.184360
    3        2.018027
    4        2.389333
    5        4.838380
    6        6.710244
    7        7.242892
    8       10.045157
 
 -0.4545455E+00  0.9090909E-01  0.0000000E+00  0.1803156E-01
    1       -5.062299
    2       -2.480165
    3        1.884626
    4        2.461311
    5        4.784643
    6        6.798848
    7        7.111428
    8       10.670680
 
 -0.3636364E+00  0.9090909E-01  0.0000000E+00  0.1803156E-01
    1       -5.407446
    2       -1.918848
    3        1.878672
    4        2.639366
    5        4.850133
    6        6.935435
    7        7.007548
    8       10.122501
 
 -0.2727273E+00  0.9090909E-01  0.0000000E+00  0.1803156E-01
    1       -5.926774
    2       -0.873118
    3        2.012342
    4        2.900954
    5        5.020923
    6        6.850604
    7        7.009934
    8        9.018633
 
 -0.1818182E+00  0.9090909E-01  0.0000000E+00  0.1803156E-01
    1       -6.378622
    2        0.370313
    3        2.301979
    4        3.197256
    5        5.243355
    6        6.532105
    7        6.733216
    8        8.048764
 
 -0.9090909E-01  0.9090909E-01  0.0000000E+00  0.9015778E-02
    1       -6.688811
    2        1.591538
    3        2.798905
    4        3.424846
    5        5.263189
    6        6.186937
    7        6.242497
    8        7.133943
 
  0.1818182E+00  0.1818182E+00  0.0000000E+00  0.4507889E-02
    1       -6.456620
    2        0.942191
    3        2.523222
    4        2.523251
    5        5.124719
    6        6.357050
    7        7.534304
    8        7.534330
 
  0.2727273E+00  0.1818182E+00  0.0000000E+00  0.1803156E-01
    1       -6.146165
    2        0.027430
    3        2.135506
    4        2.241674
    5        5.154722
    6        6.384788
    7        7.924382
    8        8.043070
 
  0.3636364E+00  0.1818182E+00  0.0000000E+00  0.1803156E-01
    1       -5.694260
    2       -1.032615
    3        1.660762
    4        2.073510
    5        5.297933
    6        6.709818
    7        7.893215
    8        8.224409
 
  0.4545455E+00  0.1818182E+00  0.0000000E+00  0.1803156E-01
    1       -5.172727
    2       -1.980921
    3        1.254653
    4        2.037604
    5        5.267475
    6        7.108814
    7        8.114533
    8        8.387789
 
 -0.4545455E+00  0.1818182E+00  0.0000000E+00  0.1803156E-01
    1       -4.827201
    2       -2.500816
    3        0.986779
    4        2.134205
    5        5.275727
    6        7.177651
    7        7.906440
    8        9.610626
 
 -0.3636364E+00  0.1818182E+00  0.0000000E+00  0.1803156E-01
    1       -5.031321
    2       -2.199777
    3        0.891589
    4        2.350332
    5        5.383395
    6        7.262155
    7        7.682931
    8        9.947717
 
 -0.2727273E+00  0.1818182E+00  0.0000000E+00  0.1803156E-01
    1       -5.538337
    2       -1.354419
    3        1.014298
    4        2.654722
    5        5.558507
    6        7.360855
    7        7.379308
    8        8.751133
 
 -0.1818182E+00  0.1818182E+00  0.0000000E+00  0.9015778E-02
    1       -6.021979
    2       -0.404839
    3        1.452751
    4        2.980124
    5        5.643726
    6        6.920756
    7        7.052960
    8        8.218605
 
  0.2727273E+00  0.2727273E+00  0.0000000E+00  0.4507889E-02
    1       -5.886671
    2       -0.446401
    3        1.936659
    4        1.936687
    5        4.646246
    6        6.096793
    7        8.806050
    8        8.806079
 
  0.3636364E+00  0.2727273E+00  0.0000000E+00  0.1803156E-01
    1       -5.476878
    2       -1.216976
    3        1.507646
    4        1.744249
    5        4.761196
    6        5.932133
    7        8.926222
    8        9.255179
 
  0.4545455E+00  0.2727273E+00  0.0000000E+00  0.1803156E-01
    1       -4.961659
    2       -2.021954
    3        0.928571
    4        1.688462
    5        4.945071
    6        6.537886
    7        8.718811
    8        9.266660
 
 -0.4545455E+00  0.2727273E+00  0.0000000E+00  0.1803156E-01
    1       -4.507952
    2       -2.618708
    3        0.472794
    4        1.773589
    5        5.035886
    6        7.761977
    7        8.575704
    8        9.037784
 
 -0.3636364E+00  0.2727273E+00  0.0000000E+00  0.1803156E-01
    1       -4.559505
    2       -2.550286
    3        0.264034
    4        1.989337
    5        5.220320
    6        8.417934
    7        8.684689
    8        9.364959
 
 -0.2727273E+00  0.2727273E+00  0.0000000E+00  0.9015778E-02
    1       -5.039182
    2       -1.954147
    3        0.406106
    4        2.305093
    5        5.473585
    6        8.114855
    7        8.349966
    8        8.631225
 
  0.3636364E+00  0.3636364E+00  0.0000000E+00  0.4507889E-02
    1       -5.108284
    2       -1.775784
    3        1.520079
    4        1.520108
    5        4.376532
    6        5.309885
    7       10.136557
    8       10.136585
 
  0.4545455E+00  0.3636364E+00  0.0000000E+00  0.1803156E-01
    1       -4.614650
    2       -2.437093
    3        1.119873
    4        1.432007
    5        4.570174
    6        5.291144
    7       10.261405
    8       10.479922
 
 -0.4545455E+00  0.3636364E+00  0.0000000E+00  0.1803156E-01
    1       -4.100450
    2       -3.008506
    3        0.541216
    4        1.488068
    5        4.724027
    6        6.233857
    7       10.073116
    8       10.288170
 
 -0.3636364E+00  0.3636364E+00  0.0000000E+00  0.9015778E-02
    1       -4.086877
    2       -3.003444
    3        0.176474
    4        1.681868
    5        4.922359
    6        7.677629
    7        9.679054
    8        9.800086
 
  0.4545455E+00  0.4545455E+00  0.0000000E+00  0.4507889E-02
    1       -4.142696
    2       -3.020048
    3        1.306464
    4        1.306492
    5        4.382171
    6        4.693888
    7       11.335753
    8       11.335790
 
 -0.4545455E+00  0.4545455E+00  0.0000000E+00  0.9015778E-02
    1       -3.641409
    2       -3.532541
    3        0.989621
    4        1.325808
    5        4.548772
    6        5.011481
    7       11.237362
    8       11.256138
 
  0.2727273E+00  0.1818182E+00  0.9090909E-01  0.1803156E-01
    1       -6.346804
    2        0.456276
    3        2.127623
    4        2.857124
    5        5.720326
    6        5.960625
    7        7.366166
    8        7.796661
 
  0.3636364E+00  0.1818182E+00  0.9090909E-01  0.3606311E-01
    1       -5.939093
    2       -0.601195
    3        1.624481
    4        2.611450
    5        5.711527
    6        6.360333
    7        7.734138
    8        8.057492
 
  0.4545455E+00  0.1818182E+00  0.9090909E-01  0.3606311E-01
    1       -5.427602
    2       -1.643116
    3        1.352206
    4        2.352613
    5        5.546761
    6        6.651948
    7        7.802945
    8        8.742424
 
 -0.4545455E+00  0.1818182E+00  0.9090909E-01  0.3606311E-01
    1       -4.975646
    2       -2.381568
    3        1.234030
    4        2.198343
    5        5.446746
    6        6.666562
    7        7.798659
    8        9.873360
 
  0.3636364E+00  0.2727273E+00  0.9090909E-01  0.1803156E-01
    1       -5.787217
    2       -0.710774
    3        1.548514
    4        2.089537
    5        5.265776
    6        6.341351
    7        7.932724
    8        8.715508
 
  0.4545455E+00  0.2727273E+00  0.9090909E-01  0.3606311E-01
    1       -5.301396
    2       -1.568483
    3        1.059720
    4        1.859010
    5        5.549275
    6        6.723070
    7        7.703580
    8        9.085807
 
 -0.4545455E+00  0.2727273E+00  0.9090909E-01  0.3606311E-01
    1       -4.791847
    2       -2.328638
    3        0.717065
    4        1.745525
    5        5.621462
    6        7.221928
    7        8.060990
    8        9.102385
 
 -0.3636364E+00  0.2727273E+00  0.9090909E-01  0.3606311E-01
    1       -4.604534
    2       -2.576532
    3        0.535643
    4        1.811952
    5        5.735275
    6        7.118739
    7        8.819555
    8        9.503466
 
 -0.2727273E+00  0.2727273E+00  0.9090909E-01  0.3606311E-01
    1       -4.975716
    2       -2.071035
    3        0.565865
    4        2.035017
    5        5.931059
    6        7.011337
    7        8.298346
    8        9.023198
 
 -0.1818182E+00  0.2727273E+00  0.9090909E-01  0.1803156E-01
    1       -5.496317
    2       -1.296583
    3        0.900003
    4        2.348472
    5        6.107369
    6        6.603182
    7        7.811050
    8        8.492902
 
  0.4545455E+00  0.3636364E+00  0.9090909E-01  0.1803156E-01
    1       -5.027158
    2       -1.883640
    3        1.165643
    4        1.483763
    5        4.992892
    6        5.760333
    7        8.937052
    8       10.103938
 
 -0.4545455E+00  0.3636364E+00  0.9090909E-01  0.3606311E-01
    1       -4.499107
    2       -2.546999
    3        0.678240
    4        1.347142
    5        5.296043
    6        6.407047
    7        8.670658
    8       10.325577
 
 -0.3636364E+00  0.3636364E+00  0.9090909E-01  0.3606311E-01
    1       -4.161718
    2       -2.918777
    3        0.285959
    4        1.433801
    5        5.454875
    6        7.747984
    7        8.424905
    8        9.643949
 
 -0.2727273E+00  0.3636364E+00  0.9090909E-01  0.1803156E-01
    1       -4.462448
    2       -2.590248
    3        0.204976
    4        1.684025
    5        5.704792
    6        8.042569
    7        8.516123
    8        9.310017
 
 -0.4545455E+00  0.4545455E+00  0.9090909E-01  0.1803156E-01
    1       -4.094421
    2       -3.029253
    3        1.016895
    4        1.120635
    5        4.968173
    6        5.225817
    7       10.189296
    8       11.067525
 
 -0.3636364E+00  0.4545455E+00  0.9090909E-01  0.1803156E-01
    1       -3.725837
    2       -3.377440
    3        0.540029
    4        1.174400
    5        5.204547
    6        6.241105
    7        9.875761
    8        9.975861
 
 -0.4545455E+00  0.3636364E+00  0.1818182E+00  0.1803156E-01
    1       -4.797838
    2       -2.183915
    3        0.585822
    4        1.516549
    5        6.357541
    6        6.760776
    7        7.401909
    8        9.991877
 
 -0.3636364E+00  0.3636364E+00  0.1818182E+00  0.3606311E-01
    1       -4.317131
    2       -2.739491
    3        0.364794
    4        1.276818
    5        6.606170
    6        6.980289
    7        8.006374
    8        9.456519
 
 -0.3636364E+00  0.4545455E+00  0.1818182E+00  0.1803156E-01
    1       -3.971981
    2       -3.081267
    3        0.566934
    4        0.879719
    5        6.314239
    6        6.504607
    7        8.359913
    8        9.664201
 
 -0.2727273E+00  0.4545455E+00  0.1818182E+00  0.1803156E-01
    1       -3.832660
    2       -3.206618
    3        0.367172
    4        0.904209
    5        6.597717
    6        7.846780
    7        8.036720
    8        8.188531
