<?xml version="1.0" encoding="ISO-8859-1"?>
<modeling>
 <generator>
  <i name="program" type="string">vasp </i>
  <i name="version" type="string">5.3.5  </i>
  <i name="subversion" type="string">31Mar14 (build Feb  5 2015 19:39:53) complex                          parallel </i>
  <i name="platform" type="string">HPCUofA </i>
  <i name="date" type="string">2017 11 14 </i>
  <i name="time" type="string">13:07:12 </i>
 </generator>
 <incar>
  <i type="string" name="SYSTEM"> diamond Si</i>
  <i type="int" name="ISTART">     0</i>
  <i type="string" name="PREC">normal</i>
  <i type="int" name="ICHARG">     2</i>
  <i name="ENCUT">    240.00000000</i>
  <i type="int" name="ISMEAR">     0</i>
  <i name="SIGMA">      0.10000000</i>
 </incar>
 <kpoints>
  <generation param="Monkhorst-Pack">
   <v type="int" name="divisions">      11       11       11 </v>
   <v name="usershift">      0.00000000       0.00000000       0.00000000 </v>
   <v name="genvec1">      0.09090909       0.00000000       0.00000000 </v>
   <v name="genvec2">      0.00000000       0.09090909       0.00000000 </v>
   <v name="genvec3">      0.00000000       0.00000000       0.09090909 </v>
   <v name="shift">      0.00000000       0.00000000       0.00000000 </v>
  </generation>
  <varray name="kpointlist" >
   <v>       0.00000000       0.00000000       0.00000000 </v>
   <v>       0.09090909       0.00000000       0.00000000 </v>
   <v>       0.18181818       0.00000000       0.00000000 </v>
   <v>       0.27272727       0.00000000       0.00000000 </v>
   <v>       0.36363636       0.00000000       0.00000000 </v>
   <v>       0.45454545       0.00000000       0.00000000 </v>
   <v>       0.09090909       0.09090909       0.00000000 </v>
   <v>       0.18181818       0.09090909       0.00000000 </v>
   <v>       0.27272727       0.09090909       0.00000000 </v>
   <v>       0.36363636       0.09090909       0.00000000 </v>
   <v>       0.45454545       0.09090909       0.00000000 </v>
   <v>      -0.45454545       0.09090909       0.00000000 </v>
   <v>      -0.36363636       0.09090909       0.00000000 </v>
   <v>      -0.27272727       0.09090909       0.00000000 </v>
   <v>      -0.18181818       0.09090909       0.00000000 </v>
   <v>      -0.09090909       0.09090909       0.00000000 </v>
   <v>       0.18181818       0.18181818       0.00000000 </v>
   <v>       0.27272727       0.18181818       0.00000000 </v>
   <v>       0.36363636       0.18181818       0.00000000 </v>
   <v>       0.45454545       0.18181818       0.00000000 </v>
   <v>      -0.45454545       0.18181818       0.00000000 </v>
   <v>      -0.36363636       0.18181818       0.00000000 </v>
   <v>      -0.27272727       0.18181818       0.00000000 </v>
   <v>      -0.18181818       0.18181818       0.00000000 </v>
   <v>       0.27272727       0.27272727       0.00000000 </v>
   <v>       0.36363636       0.27272727       0.00000000 </v>
   <v>       0.45454545       0.27272727       0.00000000 </v>
   <v>      -0.45454545       0.27272727       0.00000000 </v>
   <v>      -0.36363636       0.27272727       0.00000000 </v>
   <v>      -0.27272727       0.27272727       0.00000000 </v>
   <v>       0.36363636       0.36363636       0.00000000 </v>
   <v>       0.45454545       0.36363636       0.00000000 </v>
   <v>      -0.45454545       0.36363636       0.00000000 </v>
   <v>      -0.36363636       0.36363636       0.00000000 </v>
   <v>       0.45454545       0.45454545       0.00000000 </v>
   <v>      -0.45454545       0.45454545       0.00000000 </v>
   <v>       0.27272727       0.18181818       0.09090909 </v>
   <v>       0.36363636       0.18181818       0.09090909 </v>
   <v>       0.45454545       0.18181818       0.09090909 </v>
   <v>      -0.45454545       0.18181818       0.09090909 </v>
   <v>       0.36363636       0.27272727       0.09090909 </v>
   <v>       0.45454545       0.27272727       0.09090909 </v>
   <v>      -0.45454545       0.27272727       0.09090909 </v>
   <v>      -0.36363636       0.27272727       0.09090909 </v>
   <v>      -0.27272727       0.27272727       0.09090909 </v>
   <v>      -0.18181818       0.27272727       0.09090909 </v>
   <v>       0.45454545       0.36363636       0.09090909 </v>
   <v>      -0.45454545       0.36363636       0.09090909 </v>
   <v>      -0.36363636       0.36363636       0.09090909 </v>
   <v>      -0.27272727       0.36363636       0.09090909 </v>
   <v>      -0.45454545       0.45454545       0.09090909 </v>
   <v>      -0.36363636       0.45454545       0.09090909 </v>
   <v>      -0.45454545       0.36363636       0.18181818 </v>
   <v>      -0.36363636       0.36363636       0.18181818 </v>
   <v>      -0.36363636       0.45454545       0.18181818 </v>
   <v>      -0.27272727       0.45454545       0.18181818 </v>
  </varray>
  <varray name="weights" >
   <v>       0.00075131 </v>
   <v>       0.00601052 </v>
   <v>       0.00601052 </v>
   <v>       0.00601052 </v>
   <v>       0.00601052 </v>
   <v>       0.00601052 </v>
   <v>       0.00450789 </v>
   <v>       0.01803156 </v>
   <v>       0.01803156 </v>
   <v>       0.01803156 </v>
   <v>       0.01803156 </v>
   <v>       0.01803156 </v>
   <v>       0.01803156 </v>
   <v>       0.01803156 </v>
   <v>       0.01803156 </v>
   <v>       0.00901578 </v>
   <v>       0.00450789 </v>
   <v>       0.01803156 </v>
   <v>       0.01803156 </v>
   <v>       0.01803156 </v>
   <v>       0.01803156 </v>
   <v>       0.01803156 </v>
   <v>       0.01803156 </v>
   <v>       0.00901578 </v>
   <v>       0.00450789 </v>
   <v>       0.01803156 </v>
   <v>       0.01803156 </v>
   <v>       0.01803156 </v>
   <v>       0.01803156 </v>
   <v>       0.00901578 </v>
   <v>       0.00450789 </v>
   <v>       0.01803156 </v>
   <v>       0.01803156 </v>
   <v>       0.00901578 </v>
   <v>       0.00450789 </v>
   <v>       0.00901578 </v>
   <v>       0.01803156 </v>
   <v>       0.03606311 </v>
   <v>       0.03606311 </v>
   <v>       0.03606311 </v>
   <v>       0.01803156 </v>
   <v>       0.03606311 </v>
   <v>       0.03606311 </v>
   <v>       0.03606311 </v>
   <v>       0.03606311 </v>
   <v>       0.01803156 </v>
   <v>       0.01803156 </v>
   <v>       0.03606311 </v>
   <v>       0.03606311 </v>
   <v>       0.01803156 </v>
   <v>       0.01803156 </v>
   <v>       0.01803156 </v>
   <v>       0.01803156 </v>
   <v>       0.03606311 </v>
   <v>       0.01803156 </v>
   <v>       0.01803156 </v>
  </varray>
 </kpoints>
 <parameters>
  <separator name="general" >
   <i type="string" name="SYSTEM">diamond Si</i>
   <i type="logical" name="LCOMPAT"> F  </i>
  </separator>
  <separator name="electronic" >
   <i type="string" name="PREC">normal</i>
   <i name="ENMAX">    240.00000000</i>
   <i name="ENAUG">    322.06900000</i>
   <i name="EDIFF">      0.00010000</i>
   <i type="int" name="IALGO">    38</i>
   <i type="int" name="IWAVPR">    10</i>
   <i type="int" name="NBANDS">     8</i>
   <i name="NELECT">      8.00000000</i>
   <i type="int" name="TURBO">     0</i>
   <i type="int" name="IRESTART">     0</i>
   <i type="int" name="NREBOOT">     0</i>
   <i type="int" name="NMIN">     0</i>
   <i name="EREF">      0.00000000</i>
   <separator name="electronic smearing" >
    <i type="int" name="ISMEAR">     0</i>
    <i name="SIGMA">      0.10000000</i>
    <i name="KSPACING">      0.50000000</i>
    <i type="logical" name="KGAMMA"> T  </i>
   </separator>
   <separator name="electronic projectors" >
    <i type="logical" name="LREAL"> F  </i>
    <v name="ROPT">      0.00000000</v>
    <i type="int" name="LMAXPAW">  -100</i>
    <i type="int" name="LMAXMIX">     2</i>
    <i type="logical" name="NLSPLINE"> F  </i>
   </separator>
   <separator name="electronic startup" >
    <i type="int" name="ISTART">     0</i>
    <i type="int" name="ICHARG">     2</i>
    <i type="int" name="INIWAV">     1</i>
   </separator>
   <separator name="electronic spin" >
    <i type="int" name="ISPIN">     1</i>
    <i type="logical" name="LNONCOLLINEAR"> F  </i>
    <v name="MAGMOM">      1.00000000      1.00000000</v>
    <i name="NUPDOWN">     -1.00000000</i>
    <i type="logical" name="LSORBIT"> F  </i>
    <v name="SAXIS">      0.00000000      0.00000000      1.00000000</v>
    <i type="logical" name="LSPIRAL"> F  </i>
    <v name="QSPIRAL">      0.00000000      0.00000000      0.00000000</v>
    <i type="logical" name="LZEROZ"> F  </i>
   </separator>
   <separator name="electronic exchange-correlation" >
    <i type="logical" name="LASPH"> F  </i>
    <i type="logical" name="LMETAGGA"> F  </i>
   </separator>
   <separator name="electronic convergence" >
    <i type="int" name="NELM">    60</i>
    <i type="int" name="NELMDL">    -5</i>
    <i type="int" name="NELMIN">     2</i>
    <i name="ENINI">    240.00000000</i>
    <separator name="electronic convergence detail" >
     <i type="logical" name="LDIAG"> T  </i>
     <i type="logical" name="LSUBROT"> F  </i>
     <i name="WEIMIN">      0.00000000</i>
     <i name="EBREAK">      0.00000313</i>
     <i name="DEPER">      0.30000000</i>
     <i type="int" name="NRMM">     4</i>
     <i name="TIME">      0.40000000</i>
    </separator>
   </separator>
   <separator name="electronic mixer" >
    <i name="AMIX">      0.40000000</i>
    <i name="BMIX">      1.00000000</i>
    <i name="AMIN">      0.10000000</i>
    <i name="AMIX_MAG">      1.60000000</i>
    <i name="BMIX_MAG">      1.00000000</i>
    <separator name="electronic mixer details" >
     <i type="int" name="IMIX">     4</i>
     <i type="int" name="MAXMIX">   -45</i>
     <i name="WC">    100.00000000</i>
     <i type="int" name="INIMIX">     1</i>
     <i type="int" name="MIXPRE">     1</i>
     <i type="int" name="MREMOVE">     5</i>
    </separator>
   </separator>
   <separator name="electronic dipolcorrection" >
    <i type="logical" name="LDIPOL"> F  </i>
    <i type="logical" name="LMONO"> F  </i>
    <i type="int" name="IDIPOL">     0</i>
    <i name="EPSILON">      1.00000000</i>
    <v name="DIPOL">   -100.00000000   -100.00000000   -100.00000000</v>
    <i name="EFIELD">      0.00000000</i>
   </separator>
  </separator>
  <separator name="grids" >
   <i type="int" name="NGX">    16</i>
   <i type="int" name="NGY">    16</i>
   <i type="int" name="NGZ">    16</i>
   <i type="int" name="NGXF">    32</i>
   <i type="int" name="NGYF">    32</i>
   <i type="int" name="NGZF">    32</i>
   <i type="logical" name="ADDGRID"> F  </i>
  </separator>
  <separator name="ionic" >
   <i type="int" name="NSW">     0</i>
   <i type="int" name="IBRION">    -1</i>
   <i type="int" name="ISIF">     2</i>
   <i name="PSTRESS">      0.00000000</i>
   <i name="EDIFFG">      0.00100000</i>
   <i type="int" name="NFREE">     0</i>
   <i name="POTIM">      0.50000000</i>
   <i name="SMASS">     -3.00000000</i>
   <i name="SCALEE">      1.00000000</i>
  </separator>
  <separator name="ionic md" >
   <i name="TEBEG">      0.00010000</i>
   <i name="TEEND">      0.00010000</i>
   <i type="int" name="NBLOCK">     1</i>
   <i type="int" name="KBLOCK">     1</i>
   <i type="int" name="NPACO">   256</i>
   <i name="APACO">     16.00000000</i>
  </separator>
  <separator name="symmetry" >
   <i type="int" name="ISYM">     2</i>
   <i name="SYMPREC">      0.00001000</i>
  </separator>
  <separator name="dos" >
   <i type="logical" name="LORBIT"> F  </i>
   <v name="RWIGS">     -1.00000000</v>
   <i type="int" name="NEDOS">   301</i>
   <i name="EMIN">     10.00000000</i>
   <i name="EMAX">    -10.00000000</i>
   <i name="EFERMI">      0.00000000</i>
  </separator>
  <separator name="writing" >
   <i type="int" name="NWRITE">     2</i>
   <i type="logical" name="LWAVE"> T  </i>
   <i type="logical" name="LCHARG"> T  </i>
   <i type="logical" name="LPARD"> F  </i>
   <i type="logical" name="LVTOT"> F  </i>
   <i type="logical" name="LVHAR"> F  </i>
   <i type="logical" name="LELF"> F  </i>
   <i type="logical" name="LOPTICS"> F  </i>
   <v name="STM">      0.00000000      0.00000000      0.00000000      0.00000000      0.00000000      0.00000000      0.00000000</v>
  </separator>
  <separator name="performance" >
   <i type="int" name="NPAR">     1</i>
   <i type="int" name="NSIM">     4</i>
   <i type="int" name="NBLK">    -1</i>
   <i type="logical" name="LPLANE"> T  </i>
   <i type="logical" name="LSCALAPACK"> T  </i>
   <i type="logical" name="LSCAAWARE"> F  </i>
   <i type="logical" name="LSCALU"> F  </i>
   <i type="logical" name="LASYNC"> F  </i>
   <i type="logical" name="LORBITALREAL"> F  </i>
  </separator>
  <separator name="miscellaneous" >
   <i type="int" name="IDIOT">     3</i>
   <i type="logical" name="LMUSIC"> F  </i>
   <v name="POMASS">     28.08500000</v>
   <v name="DARWINR">      0.00000000</v>
   <v name="DARWINV">      1.00000000</v>
   <i type="logical" name="LCORR"> T  </i>
  </separator>
  <i type="logical" name="GGA_COMPAT"> T  </i>
  <i type="logical" name="LBERRY"> F  </i>
  <i type="int" name="ICORELEVEL">     0</i>
  <i type="logical" name="LDAU"> F  </i>
  <i type="int" name="I_CONSTRAINED_M">     0</i>
  <separator name="electronic exchange-correlation" >
   <i type="string" name="GGA">--</i>
   <i type="int" name="VOSKOWN">     0</i>
   <i type="logical" name="LHFCALC"> F  </i>
   <i type="string" name="PRECFOCK"></i>
   <i type="logical" name="LSYMGRAD"> F  </i>
   <i type="logical" name="LHFONE"> F  </i>
   <i type="logical" name="LRHFCALC"> F  </i>
   <i type="logical" name="LTHOMAS"> F  </i>
   <i type="logical" name="LMODELHF"> F  </i>
   <i name="ENCUT4O">     -1.00000000</i>
   <i type="int" name="EXXOEP">     0</i>
   <i type="int" name="FOURORBIT">     0</i>
   <i name="AEXX">      0.00000000</i>
   <i name="HFALPHA">      0.00000000</i>
   <i name="MCALPHA">      0.00000000</i>
   <i name="ALDAX">      1.00000000</i>
   <i name="AGGAX">      1.00000000</i>
   <i name="ALDAC">      1.00000000</i>
   <i name="AGGAC">      1.00000000</i>
   <i type="int" name="NKREDX">     1</i>
   <i type="int" name="NKREDY">     1</i>
   <i type="int" name="NKREDZ">     1</i>
   <i type="logical" name="SHIFTRED"> F  </i>
   <i type="logical" name="ODDONLY"> F  </i>
   <i type="logical" name="EVENONLY"> F  </i>
   <i type="int" name="LMAXFOCK">     0</i>
   <i type="int" name="NMAXFOCKAE">     0</i>
   <i type="logical" name="LFOCKAEDFT"> F  </i>
   <i name="HFSCREEN">      0.00000000</i>
   <i name="HFSCREENC">      0.00000000</i>
   <i type="int" name="NBANDSGWLOW">     0</i>
  </separator>
  <separator name="vdW DFT" >
   <i type="logical" name="LUSE_VDW"> F  </i>
   <i name="Zab_VDW">     -0.84910000</i>
   <i name="PARAM1">      0.12340000</i>
   <i name="PARAM2">      1.00000000</i>
   <i name="PARAM3">      0.00000000</i>
  </separator>
  <separator name="model GW" >
   <i type="int" name="MODEL_GW">     0</i>
   <i name="MODEL_EPS0">     15.32385743</i>
   <i name="MODEL_ALPHA">      1.00000000</i>
  </separator>
  <separator name="linear response parameters" >
   <i type="logical" name="LEPSILON"> F  </i>
   <i type="logical" name="LRPA"> F  </i>
   <i type="logical" name="LNABLA"> F  </i>
   <i type="logical" name="LVEL"> F  </i>
   <i type="int" name="KINTER">     0</i>
   <i name="CSHIFT">      0.10000000</i>
   <i name="OMEGAMAX">     -1.00000000</i>
   <i name="DEG_THRESHOLD">      0.00200000</i>
  </separator>
  <separator name="orbital magnetization" >
   <i type="logical" name="NUCIND"> F  </i>
   <v name="MAGPOS">      0.00000000      0.00000000      0.00000000</v>
   <i type="logical" name="LNICSALL"> T  </i>
   <i type="logical" name="ORBITALMAG"> F  </i>
   <i type="logical" name="LMAGBLOCH"> F  </i>
   <i type="logical" name="LCHIMAG"> F  </i>
   <i type="logical" name="LGAUGE"> T  </i>
   <i type="int" name="MAGATOM">     0</i>
   <v name="MAGDIPOL">      0.00000000      0.00000000      0.00000000</v>
   <v name="AVECCONST">      0.00000000      0.00000000      0.00000000</v>
  </separator>
  <separator name="response functions" >
   <i type="logical" name="LADDER"> F  </i>
   <i type="logical" name="LFXC"> F  </i>
   <i type="logical" name="LHARTREE"> T  </i>
   <i type="int" name="IBSE">     0</i>
   <i type="logical" name="LTCTE"> F  </i>
   <i type="logical" name="LTETE"> F  </i>
   <i type="logical" name="LTRIPLET"> F  </i>
   <i type="logical" name="LFXCEPS"> F  </i>
   <i type="logical" name="LFXHEG"> F  </i>
   <i type="logical" name="L2ORDER"> F  </i>
   <i type="logical" name="LUSEW"> F  </i>
   <i name="ENCUTGW">     -2.00000000</i>
   <i name="ENCUTGWSOFT">     -2.00000000</i>
   <i name="ENCUTLF">     -1.00000000</i>
   <i type="int" name="LMAXMP2">    -1</i>
   <i name="SCISSOR">      0.00000000</i>
   <i type="int" name="NOMEGA">     0</i>
   <i type="int" name="NOMEGAR">     0</i>
   <i type="int" name="NBANDSGW">    -1</i>
   <i type="int" name="NBANDSO">    -1</i>
   <i type="int" name="NBANDSV">    -1</i>
   <i type="int" name="NELM">     1</i>
   <i type="int" name="DIM">     3</i>
   <i type="int" name="ANTIRES">     0</i>
   <i name="OMEGAMAX">    -30.00000000</i>
   <i name="OMEGAMIN">    -30.00000000</i>
   <i name="OMEGATL">   -200.00000000</i>
   <i type="int" name="OMEGAGRID">     0</i>
   <i name="CSHIFT">     -0.10000000</i>
   <i type="logical" name="SELFENERGY"> F  </i>
   <i type="logical" name="LSPECTRAL"> F  </i>
   <i type="logical" name="ODDONLYGW"> F  </i>
   <i type="logical" name="EVENONLYGW"> F  </i>
   <i type="int" name="NKREDLFX">     1</i>
   <i type="int" name="NKREDLFY">     1</i>
   <i type="int" name="NKREDLFZ">     1</i>
   <i type="int" name="MAXMEM">  1800</i>
   <i type="int" name="TELESCOPE">     0</i>
   <i type="int" name="TAUPAR">     1</i>
  </separator>
  <separator name="External order field" >
   <i name="OFIELD_KAPPA">      0.00000000</i>
   <v name="OFIELD_K">      0.00000000      0.00000000      0.00000000</v>
   <i name="OFIELD_Q6_NEAR">      0.00000000</i>
   <i name="OFIELD_Q6_FAR">      0.00000000</i>
   <i name="OFIELD_A">      0.00000000</i>
  </separator>
 </parameters>
 <atominfo>
  <atoms>       2 </atoms>
  <types>       1 </types>
  <array name="atoms" >
   <dimension dim="1">ion</dimension>
   <field type="string">element</field>
   <field type="int">atomtype</field>
   <set>
    <rc><c>Si</c><c>   1</c></rc>
    <rc><c>Si</c><c>   1</c></rc>
   </set>
  </array>
  <array name="atomtypes" >
   <dimension dim="1">type</dimension>
   <field type="int">atomspertype</field>
   <field type="string">element</field>
   <field>mass</field>
   <field>valence</field>
   <field type="string">pseudopotential</field>
   <set>
    <rc><c>   2</c><c>Si</c><c>     28.08500000</c><c>      4.00000000</c><c> PAW Si 02Apr1999                       </c></rc>
   </set>
  </array>
 </atominfo>
 <structure name="initialpos" >
  <crystal>
   <varray name="basis" >
    <v>       0.00000000       2.94491175       2.94491175 </v>
    <v>       2.94491175       0.00000000       2.94491175 </v>
    <v>       2.94491175       2.94491175       0.00000000 </v>
   </varray>
   <i name="volume">     51.07952478 </i>
   <varray name="rec_basis" >
    <v>      -0.16978437       0.16978437       0.16978437 </v>
    <v>       0.16978437      -0.16978437       0.16978437 </v>
    <v>       0.16978437       0.16978437      -0.16978437 </v>
   </varray>
  </crystal>
  <varray name="positions" >
   <v>       0.87500000       0.87500000       0.87500000 </v>
   <v>       0.12500000       0.12500000       0.12500000 </v>
  </varray>
 </structure>
 <calculation>
  <scstep>
   <time name="dav">    0.26    0.26</time>
   <time name="total">    0.27    0.27</time>
   <energy>
    <i name="alphaZ">      1.85635788 </i>
    <i name="ewald">   -210.71937763 </i>
    <i name="hartreedc">    -15.05087800 </i>
    <i name="XCdc">    -19.38708713 </i>
    <i name="pawpsdc">     67.11795164 </i>
    <i name="pawaedc">    -32.28261218 </i>
    <i name="eentropy">     -0.00474529 </i>
    <i name="bandstr">     -0.27404199 </i>
    <i name="atom">    206.85524113 </i>
    <i name="e_fr_energy">     -1.88919155 </i>
    <i name="e_wo_entrp">     -1.88444626 </i>
    <i name="e_0_energy">     -1.88681891 </i>
   </energy>
  </scstep>
  <scstep>
   <time name="dav">    0.42    0.42</time>
   <time name="total">    0.42    0.42</time>
   <energy>
    <i name="e_fr_energy">    -11.27821300 </i>
    <i name="e_wo_entrp">    -11.27821300 </i>
    <i name="e_0_energy">    -11.27821300 </i>
   </energy>
  </scstep>
  <scstep>
   <time name="dav">    0.32    0.32</time>
   <time name="total">    0.32    0.32</time>
   <energy>
    <i name="e_fr_energy">    -11.39264751 </i>
    <i name="e_wo_entrp">    -11.39264751 </i>
    <i name="e_0_energy">    -11.39264751 </i>
   </energy>
  </scstep>
  <scstep>
   <time name="dav">    0.39    0.39</time>
   <time name="total">    0.39    0.39</time>
   <energy>
    <i name="e_fr_energy">    -11.39307203 </i>
    <i name="e_wo_entrp">    -11.39307203 </i>
    <i name="e_0_energy">    -11.39307203 </i>
   </energy>
  </scstep>
  <scstep>
   <time name="dav">    0.33    0.33</time>
   <time name="total">    0.35    0.35</time>
   <energy>
    <i name="e_fr_energy">    -11.39307315 </i>
    <i name="e_wo_entrp">    -11.39307315 </i>
    <i name="e_0_energy">    -11.39307315 </i>
   </energy>
  </scstep>
  <scstep>
   <time name="dav">    0.30    0.30</time>
   <time name="total">    0.32    0.33</time>
   <energy>
    <i name="e_fr_energy">    -11.30578271 </i>
    <i name="e_wo_entrp">    -11.30578271 </i>
    <i name="e_0_energy">    -11.30578271 </i>
   </energy>
  </scstep>
  <scstep>
   <time name="dav">    0.30    0.30</time>
   <time name="total">    0.33    0.33</time>
   <energy>
    <i name="e_fr_energy">    -11.25673005 </i>
    <i name="e_wo_entrp">    -11.25673000 </i>
    <i name="e_0_energy">    -11.25673003 </i>
   </energy>
  </scstep>
  <scstep>
   <time name="dav">    0.27    0.27</time>
   <time name="total">    0.29    0.30</time>
   <energy>
    <i name="e_fr_energy">    -11.25703649 </i>
    <i name="e_wo_entrp">    -11.25703644 </i>
    <i name="e_0_energy">    -11.25703646 </i>
   </energy>
  </scstep>
  <scstep>
   <time name="dav">    0.24    0.24</time>
   <time name="total">    0.25    0.26</time>
   <energy>
    <i name="alphaZ">      1.85635788 </i>
    <i name="ewald">   -210.71937763 </i>
    <i name="hartreedc">    -17.83490506 </i>
    <i name="XCdc">    -18.89463880 </i>
    <i name="pawpsdc">     69.78682263 </i>
    <i name="pawaedc">    -35.02312448 </i>
    <i name="eentropy">     -0.00000005 </i>
    <i name="bandstr">     -7.28339964 </i>
    <i name="atom">    206.85524113 </i>
    <i name="e_fr_energy">    -11.25702401 </i>
    <i name="e_wo_entrp">    -11.25702396 </i>
    <i name="e_0_energy">    -11.25702398 </i>
   </energy>
  </scstep>
  <structure>
   <crystal>
    <varray name="basis" >
     <v>       0.00000000       2.94491175       2.94491175 </v>
     <v>       2.94491175       0.00000000       2.94491175 </v>
     <v>       2.94491175       2.94491175       0.00000000 </v>
    </varray>
    <i name="volume">     51.07952478 </i>
    <varray name="rec_basis" >
     <v>      -0.16978437       0.16978437       0.16978437 </v>
     <v>       0.16978437      -0.16978437       0.16978437 </v>
     <v>       0.16978437       0.16978437      -0.16978437 </v>
    </varray>
   </crystal>
   <varray name="positions" >
    <v>       0.87500000       0.87500000       0.87500000 </v>
    <v>       0.12500000       0.12500000       0.12500000 </v>
   </varray>
  </structure>
  <varray name="forces" >
   <v>      -0.00000000      -0.00000000      -0.00000000 </v>
   <v>       0.00000000       0.00000000       0.00000000 </v>
  </varray>
  <varray name="stress" >
   <v>    -141.53490892      -0.00000000       0.00000000 </v>
   <v>       0.00000000    -141.53490892       0.00000000 </v>
   <v>      -0.00000000      -0.00000000    -141.53490892 </v>
  </varray>
  <energy>
   <i name="e_fr_energy">    -11.25702401 </i>
   <i name="e_wo_entrp">    -11.25702398 </i>
   <i name="e_0_energy">     -0.00000005 </i>
  </energy>
  <time name="totalsc">    3.21    3.26</time>
  <eigenvalues>
   <array>
    <dimension dim="1">band</dimension>
    <dimension dim="2">kpoint</dimension>
    <dimension dim="3">spin</dimension>
    <field>eigene</field>
    <field>occ</field>
    <set>
     <set comment="spin 1">
      <set comment="kpoint 1">
       <r>   -6.9200    1.0000 </r>
       <r>    3.5587    1.0000 </r>
       <r>    3.5587    1.0000 </r>
       <r>    3.5587    1.0000 </r>
       <r>    4.2272    0.0000 </r>
       <r>    5.9407    0.0000 </r>
       <r>    5.9407    0.0000 </r>
       <r>    5.9407    0.0000 </r>
      </set>
      <set comment="kpoint 2">
       <r>   -6.8330    1.0000 </r>
       <r>    2.3980    1.0000 </r>
       <r>    3.4257    1.0000 </r>
       <r>    3.4258    1.0000 </r>
       <r>    4.8628    0.0000 </r>
       <r>    6.1327    0.0000 </r>
       <r>    6.1327    0.0000 </r>
       <r>    6.3095    0.0000 </r>
      </set>
      <set comment="kpoint 3">
       <r>   -6.5758    1.0000 </r>
       <r>    0.9369    1.0000 </r>
       <r>    3.1498    1.0000 </r>
       <r>    3.1499    1.0000 </r>
       <r>    4.7995    0.0000 </r>
       <r>    6.5299    0.0000 </r>
       <r>    6.5300    0.0000 </r>
       <r>    7.5220    0.0000 </r>
      </set>
      <set comment="kpoint 4">
       <r>   -6.1657    1.0000 </r>
       <r>   -0.4325    1.0000 </r>
       <r>    2.8781    1.0000 </r>
       <r>    2.8781    1.0000 </r>
       <r>    4.5192    0.0000 </r>
       <r>    6.8203    0.0000 </r>
       <r>    6.8204    0.0000 </r>
       <r>    8.9407    0.0000 </r>
      </set>
      <set comment="kpoint 5">
       <r>   -5.6540    1.0000 </r>
       <r>   -1.6038    1.0000 </r>
       <r>    2.6794    1.0000 </r>
       <r>    2.6794    1.0000 </r>
       <r>    4.2868    0.0000 </r>
       <r>    6.8866    0.0000 </r>
       <r>    6.8867    0.0000 </r>
       <r>   10.2316    0.0000 </r>
      </set>
      <set comment="kpoint 6">
       <r>   -5.2083    1.0000 </r>
       <r>   -2.3847    1.0000 </r>
       <r>    2.5762    1.0000 </r>
       <r>    2.5763    1.0000 </r>
       <r>    4.1619    0.0000 </r>
       <r>    6.8574    0.0000 </r>
       <r>    6.8576    0.0000 </r>
       <r>   10.6106    0.0000 </r>
      </set>
      <set comment="kpoint 7">
       <r>   -6.8038    1.0000 </r>
       <r>    2.3707    1.0000 </r>
       <r>    3.1830    1.0000 </r>
       <r>    3.1830    1.0000 </r>
       <r>    5.3715    0.0000 </r>
       <r>    5.6666    0.0000 </r>
       <r>    6.4548    0.0000 </r>
       <r>    6.4548    0.0000 </r>
      </set>
      <set comment="kpoint 8">
       <r>   -6.6022    1.0000 </r>
       <r>    1.2593    1.0000 </r>
       <r>    2.8663    1.0000 </r>
       <r>    2.9291    1.0000 </r>
       <r>    5.4923    0.0000 </r>
       <r>    5.8405    0.0000 </r>
       <r>    6.9375    0.0000 </r>
       <r>    7.2883    0.0000 </r>
      </set>
      <set comment="kpoint 9">
       <r>   -6.2403    1.0000 </r>
       <r>   -0.0499    1.0000 </r>
       <r>    2.5916    1.0000 </r>
       <r>    2.5993    1.0000 </r>
       <r>    5.2495    0.0000 </r>
       <r>    6.3020    0.0000 </r>
       <r>    7.2918    0.0000 </r>
       <r>    8.2032    0.0000 </r>
      </set>
      <set comment="kpoint 10">
       <r>   -5.7527    1.0000 </r>
       <r>   -1.2569    1.0000 </r>
       <r>    2.2634    1.0000 </r>
       <r>    2.4351    1.0000 </r>
       <r>    5.0030    0.0000 </r>
       <r>    6.6081    0.0000 </r>
       <r>    7.3563    0.0000 </r>
       <r>    9.0237    0.0000 </r>
      </set>
      <set comment="kpoint 11">
       <r>   -5.2509    1.0000 </r>
       <r>   -2.1844    1.0000 </r>
       <r>    2.0180    1.0000 </r>
       <r>    2.3893    1.0000 </r>
       <r>    4.8384    0.0000 </r>
       <r>    6.7102    0.0000 </r>
       <r>    7.2429    0.0000 </r>
       <r>   10.0452    0.0000 </r>
      </set>
      <set comment="kpoint 12">
       <r>   -5.0623    1.0000 </r>
       <r>   -2.4802    1.0000 </r>
       <r>    1.8846    1.0000 </r>
       <r>    2.4613    1.0000 </r>
       <r>    4.7846    0.0000 </r>
       <r>    6.7988    0.0000 </r>
       <r>    7.1114    0.0000 </r>
       <r>   10.6707    0.0000 </r>
      </set>
      <set comment="kpoint 13">
       <r>   -5.4074    1.0000 </r>
       <r>   -1.9188    1.0000 </r>
       <r>    1.8787    1.0000 </r>
       <r>    2.6394    1.0000 </r>
       <r>    4.8501    0.0000 </r>
       <r>    6.9354    0.0000 </r>
       <r>    7.0075    0.0000 </r>
       <r>   10.1225    0.0000 </r>
      </set>
      <set comment="kpoint 14">
       <r>   -5.9268    1.0000 </r>
       <r>   -0.8731    1.0000 </r>
       <r>    2.0123    1.0000 </r>
       <r>    2.9010    1.0000 </r>
       <r>    5.0209    0.0000 </r>
       <r>    6.8506    0.0000 </r>
       <r>    7.0099    0.0000 </r>
       <r>    9.0186    0.0000 </r>
      </set>
      <set comment="kpoint 15">
       <r>   -6.3786    1.0000 </r>
       <r>    0.3703    1.0000 </r>
       <r>    2.3020    1.0000 </r>
       <r>    3.1973    1.0000 </r>
       <r>    5.2434    0.0000 </r>
       <r>    6.5321    0.0000 </r>
       <r>    6.7332    0.0000 </r>
       <r>    8.0488    0.0000 </r>
      </set>
      <set comment="kpoint 16">
       <r>   -6.6888    1.0000 </r>
       <r>    1.5915    1.0000 </r>
       <r>    2.7989    1.0000 </r>
       <r>    3.4248    1.0000 </r>
       <r>    5.2632    0.0000 </r>
       <r>    6.1869    0.0000 </r>
       <r>    6.2425    0.0000 </r>
       <r>    7.1339    0.0000 </r>
      </set>
      <set comment="kpoint 17">
       <r>   -6.4566    1.0000 </r>
       <r>    0.9422    1.0000 </r>
       <r>    2.5232    1.0000 </r>
       <r>    2.5233    1.0000 </r>
       <r>    5.1247    0.0000 </r>
       <r>    6.3571    0.0000 </r>
       <r>    7.5343    0.0000 </r>
       <r>    7.5343    0.0000 </r>
      </set>
      <set comment="kpoint 18">
       <r>   -6.1462    1.0000 </r>
       <r>    0.0274    1.0000 </r>
       <r>    2.1355    1.0000 </r>
       <r>    2.2417    1.0000 </r>
       <r>    5.1547    0.0000 </r>
       <r>    6.3848    0.0000 </r>
       <r>    7.9244    0.0000 </r>
       <r>    8.0431    0.0000 </r>
      </set>
      <set comment="kpoint 19">
       <r>   -5.6943    1.0000 </r>
       <r>   -1.0326    1.0000 </r>
       <r>    1.6608    1.0000 </r>
       <r>    2.0735    1.0000 </r>
       <r>    5.2979    0.0000 </r>
       <r>    6.7098    0.0000 </r>
       <r>    7.8932    0.0000 </r>
       <r>    8.2244    0.0000 </r>
      </set>
      <set comment="kpoint 20">
       <r>   -5.1727    1.0000 </r>
       <r>   -1.9809    1.0000 </r>
       <r>    1.2547    1.0000 </r>
       <r>    2.0376    1.0000 </r>
       <r>    5.2675    0.0000 </r>
       <r>    7.1088    0.0000 </r>
       <r>    8.1145    0.0000 </r>
       <r>    8.3878    0.0000 </r>
      </set>
      <set comment="kpoint 21">
       <r>   -4.8272    1.0000 </r>
       <r>   -2.5008    1.0000 </r>
       <r>    0.9868    1.0000 </r>
       <r>    2.1342    1.0000 </r>
       <r>    5.2757    0.0000 </r>
       <r>    7.1777    0.0000 </r>
       <r>    7.9064    0.0000 </r>
       <r>    9.6106    0.0000 </r>
      </set>
      <set comment="kpoint 22">
       <r>   -5.0313    1.0000 </r>
       <r>   -2.1998    1.0000 </r>
       <r>    0.8916    1.0000 </r>
       <r>    2.3503    1.0000 </r>
       <r>    5.3834    0.0000 </r>
       <r>    7.2622    0.0000 </r>
       <r>    7.6829    0.0000 </r>
       <r>    9.9477    0.0000 </r>
      </set>
      <set comment="kpoint 23">
       <r>   -5.5383    1.0000 </r>
       <r>   -1.3544    1.0000 </r>
       <r>    1.0143    1.0000 </r>
       <r>    2.6547    1.0000 </r>
       <r>    5.5585    0.0000 </r>
       <r>    7.3609    0.0000 </r>
       <r>    7.3793    0.0000 </r>
       <r>    8.7511    0.0000 </r>
      </set>
      <set comment="kpoint 24">
       <r>   -6.0220    1.0000 </r>
       <r>   -0.4048    1.0000 </r>
       <r>    1.4528    1.0000 </r>
       <r>    2.9801    1.0000 </r>
       <r>    5.6437    0.0000 </r>
       <r>    6.9208    0.0000 </r>
       <r>    7.0530    0.0000 </r>
       <r>    8.2186    0.0000 </r>
      </set>
      <set comment="kpoint 25">
       <r>   -5.8867    1.0000 </r>
       <r>   -0.4464    1.0000 </r>
       <r>    1.9367    1.0000 </r>
       <r>    1.9367    1.0000 </r>
       <r>    4.6462    0.0000 </r>
       <r>    6.0968    0.0000 </r>
       <r>    8.8061    0.0000 </r>
       <r>    8.8061    0.0000 </r>
      </set>
      <set comment="kpoint 26">
       <r>   -5.4769    1.0000 </r>
       <r>   -1.2170    1.0000 </r>
       <r>    1.5076    1.0000 </r>
       <r>    1.7442    1.0000 </r>
       <r>    4.7612    0.0000 </r>
       <r>    5.9321    0.0000 </r>
       <r>    8.9262    0.0000 </r>
       <r>    9.2552    0.0000 </r>
      </set>
      <set comment="kpoint 27">
       <r>   -4.9617    1.0000 </r>
       <r>   -2.0220    1.0000 </r>
       <r>    0.9286    1.0000 </r>
       <r>    1.6885    1.0000 </r>
       <r>    4.9451    0.0000 </r>
       <r>    6.5379    0.0000 </r>
       <r>    8.7188    0.0000 </r>
       <r>    9.2667    0.0000 </r>
      </set>
      <set comment="kpoint 28">
       <r>   -4.5080    1.0000 </r>
       <r>   -2.6187    1.0000 </r>
       <r>    0.4728    1.0000 </r>
       <r>    1.7736    1.0000 </r>
       <r>    5.0359    0.0000 </r>
       <r>    7.7620    0.0000 </r>
       <r>    8.5757    0.0000 </r>
       <r>    9.0378    0.0000 </r>
      </set>
      <set comment="kpoint 29">
       <r>   -4.5595    1.0000 </r>
       <r>   -2.5503    1.0000 </r>
       <r>    0.2640    1.0000 </r>
       <r>    1.9893    1.0000 </r>
       <r>    5.2203    0.0000 </r>
       <r>    8.4179    0.0000 </r>
       <r>    8.6847    0.0000 </r>
       <r>    9.3650    0.0000 </r>
      </set>
      <set comment="kpoint 30">
       <r>   -5.0392    1.0000 </r>
       <r>   -1.9541    1.0000 </r>
       <r>    0.4061    1.0000 </r>
       <r>    2.3051    1.0000 </r>
       <r>    5.4736    0.0000 </r>
       <r>    8.1149    0.0000 </r>
       <r>    8.3500    0.0000 </r>
       <r>    8.6312    0.0000 </r>
      </set>
      <set comment="kpoint 31">
       <r>   -5.1083    1.0000 </r>
       <r>   -1.7758    1.0000 </r>
       <r>    1.5201    1.0000 </r>
       <r>    1.5201    1.0000 </r>
       <r>    4.3765    0.0000 </r>
       <r>    5.3099    0.0000 </r>
       <r>   10.1366    0.0000 </r>
       <r>   10.1366    0.0000 </r>
      </set>
      <set comment="kpoint 32">
       <r>   -4.6146    1.0000 </r>
       <r>   -2.4371    1.0000 </r>
       <r>    1.1199    1.0000 </r>
       <r>    1.4320    1.0000 </r>
       <r>    4.5702    0.0000 </r>
       <r>    5.2911    0.0000 </r>
       <r>   10.2614    0.0000 </r>
       <r>   10.4799    0.0000 </r>
      </set>
      <set comment="kpoint 33">
       <r>   -4.1005    1.0000 </r>
       <r>   -3.0085    1.0000 </r>
       <r>    0.5412    1.0000 </r>
       <r>    1.4881    1.0000 </r>
       <r>    4.7240    0.0000 </r>
       <r>    6.2339    0.0000 </r>
       <r>   10.0731    0.0000 </r>
       <r>   10.2882    0.0000 </r>
      </set>
      <set comment="kpoint 34">
       <r>   -4.0869    1.0000 </r>
       <r>   -3.0034    1.0000 </r>
       <r>    0.1765    1.0000 </r>
       <r>    1.6819    1.0000 </r>
       <r>    4.9224    0.0000 </r>
       <r>    7.6776    0.0000 </r>
       <r>    9.6791    0.0000 </r>
       <r>    9.8001    0.0000 </r>
      </set>
      <set comment="kpoint 35">
       <r>   -4.1427    1.0000 </r>
       <r>   -3.0200    1.0000 </r>
       <r>    1.3065    1.0000 </r>
       <r>    1.3065    1.0000 </r>
       <r>    4.3822    0.0000 </r>
       <r>    4.6939    0.0000 </r>
       <r>   11.3358    0.0000 </r>
       <r>   11.3358    0.0000 </r>
      </set>
      <set comment="kpoint 36">
       <r>   -3.6414    1.0000 </r>
       <r>   -3.5325    1.0000 </r>
       <r>    0.9896    1.0000 </r>
       <r>    1.3258    1.0000 </r>
       <r>    4.5488    0.0000 </r>
       <r>    5.0115    0.0000 </r>
       <r>   11.2374    0.0000 </r>
       <r>   11.2561    0.0000 </r>
      </set>
      <set comment="kpoint 37">
       <r>   -6.3468    1.0000 </r>
       <r>    0.4563    1.0000 </r>
       <r>    2.1276    1.0000 </r>
       <r>    2.8571    1.0000 </r>
       <r>    5.7203    0.0000 </r>
       <r>    5.9606    0.0000 </r>
       <r>    7.3662    0.0000 </r>
       <r>    7.7967    0.0000 </r>
      </set>
      <set comment="kpoint 38">
       <r>   -5.9391    1.0000 </r>
       <r>   -0.6012    1.0000 </r>
       <r>    1.6245    1.0000 </r>
       <r>    2.6115    1.0000 </r>
       <r>    5.7115    0.0000 </r>
       <r>    6.3603    0.0000 </r>
       <r>    7.7341    0.0000 </r>
       <r>    8.0575    0.0000 </r>
      </set>
      <set comment="kpoint 39">
       <r>   -5.4276    1.0000 </r>
       <r>   -1.6431    1.0000 </r>
       <r>    1.3522    1.0000 </r>
       <r>    2.3526    1.0000 </r>
       <r>    5.5468    0.0000 </r>
       <r>    6.6519    0.0000 </r>
       <r>    7.8029    0.0000 </r>
       <r>    8.7424    0.0000 </r>
      </set>
      <set comment="kpoint 40">
       <r>   -4.9756    1.0000 </r>
       <r>   -2.3816    1.0000 </r>
       <r>    1.2340    1.0000 </r>
       <r>    2.1983    1.0000 </r>
       <r>    5.4467    0.0000 </r>
       <r>    6.6666    0.0000 </r>
       <r>    7.7987    0.0000 </r>
       <r>    9.8734    0.0000 </r>
      </set>
      <set comment="kpoint 41">
       <r>   -5.7872    1.0000 </r>
       <r>   -0.7108    1.0000 </r>
       <r>    1.5485    1.0000 </r>
       <r>    2.0895    1.0000 </r>
       <r>    5.2658    0.0000 </r>
       <r>    6.3414    0.0000 </r>
       <r>    7.9327    0.0000 </r>
       <r>    8.7155    0.0000 </r>
      </set>
      <set comment="kpoint 42">
       <r>   -5.3014    1.0000 </r>
       <r>   -1.5685    1.0000 </r>
       <r>    1.0597    1.0000 </r>
       <r>    1.8590    1.0000 </r>
       <r>    5.5493    0.0000 </r>
       <r>    6.7231    0.0000 </r>
       <r>    7.7036    0.0000 </r>
       <r>    9.0858    0.0000 </r>
      </set>
      <set comment="kpoint 43">
       <r>   -4.7918    1.0000 </r>
       <r>   -2.3286    1.0000 </r>
       <r>    0.7171    1.0000 </r>
       <r>    1.7455    1.0000 </r>
       <r>    5.6215    0.0000 </r>
       <r>    7.2219    0.0000 </r>
       <r>    8.0610    0.0000 </r>
       <r>    9.1024    0.0000 </r>
      </set>
      <set comment="kpoint 44">
       <r>   -4.6045    1.0000 </r>
       <r>   -2.5765    1.0000 </r>
       <r>    0.5356    1.0000 </r>
       <r>    1.8120    1.0000 </r>
       <r>    5.7353    0.0000 </r>
       <r>    7.1187    0.0000 </r>
       <r>    8.8196    0.0000 </r>
       <r>    9.5035    0.0000 </r>
      </set>
      <set comment="kpoint 45">
       <r>   -4.9757    1.0000 </r>
       <r>   -2.0710    1.0000 </r>
       <r>    0.5659    1.0000 </r>
       <r>    2.0350    1.0000 </r>
       <r>    5.9311    0.0000 </r>
       <r>    7.0113    0.0000 </r>
       <r>    8.2983    0.0000 </r>
       <r>    9.0232    0.0000 </r>
      </set>
      <set comment="kpoint 46">
       <r>   -5.4963    1.0000 </r>
       <r>   -1.2966    1.0000 </r>
       <r>    0.9000    1.0000 </r>
       <r>    2.3485    1.0000 </r>
       <r>    6.1074    0.0000 </r>
       <r>    6.6032    0.0000 </r>
       <r>    7.8110    0.0000 </r>
       <r>    8.4929    0.0000 </r>
      </set>
      <set comment="kpoint 47">
       <r>   -5.0272    1.0000 </r>
       <r>   -1.8836    1.0000 </r>
       <r>    1.1656    1.0000 </r>
       <r>    1.4838    1.0000 </r>
       <r>    4.9929    0.0000 </r>
       <r>    5.7603    0.0000 </r>
       <r>    8.9371    0.0000 </r>
       <r>   10.1039    0.0000 </r>
      </set>
      <set comment="kpoint 48">
       <r>   -4.4991    1.0000 </r>
       <r>   -2.5470    1.0000 </r>
       <r>    0.6782    1.0000 </r>
       <r>    1.3471    1.0000 </r>
       <r>    5.2960    0.0000 </r>
       <r>    6.4070    0.0000 </r>
       <r>    8.6707    0.0000 </r>
       <r>   10.3256    0.0000 </r>
      </set>
      <set comment="kpoint 49">
       <r>   -4.1617    1.0000 </r>
       <r>   -2.9188    1.0000 </r>
       <r>    0.2860    1.0000 </r>
       <r>    1.4338    1.0000 </r>
       <r>    5.4549    0.0000 </r>
       <r>    7.7480    0.0000 </r>
       <r>    8.4249    0.0000 </r>
       <r>    9.6439    0.0000 </r>
      </set>
      <set comment="kpoint 50">
       <r>   -4.4624    1.0000 </r>
       <r>   -2.5902    1.0000 </r>
       <r>    0.2050    1.0000 </r>
       <r>    1.6840    1.0000 </r>
       <r>    5.7048    0.0000 </r>
       <r>    8.0426    0.0000 </r>
       <r>    8.5161    0.0000 </r>
       <r>    9.3100    0.0000 </r>
      </set>
      <set comment="kpoint 51">
       <r>   -4.0944    1.0000 </r>
       <r>   -3.0293    1.0000 </r>
       <r>    1.0169    1.0000 </r>
       <r>    1.1206    1.0000 </r>
       <r>    4.9682    0.0000 </r>
       <r>    5.2258    0.0000 </r>
       <r>   10.1893    0.0000 </r>
       <r>   11.0675    0.0000 </r>
      </set>
      <set comment="kpoint 52">
       <r>   -3.7258    1.0000 </r>
       <r>   -3.3774    1.0000 </r>
       <r>    0.5400    1.0000 </r>
       <r>    1.1744    1.0000 </r>
       <r>    5.2045    0.0000 </r>
       <r>    6.2411    0.0000 </r>
       <r>    9.8758    0.0000 </r>
       <r>    9.9759    0.0000 </r>
      </set>
      <set comment="kpoint 53">
       <r>   -4.7978    1.0000 </r>
       <r>   -2.1839    1.0000 </r>
       <r>    0.5858    1.0000 </r>
       <r>    1.5165    1.0000 </r>
       <r>    6.3575    0.0000 </r>
       <r>    6.7608    0.0000 </r>
       <r>    7.4019    0.0000 </r>
       <r>    9.9919    0.0000 </r>
      </set>
      <set comment="kpoint 54">
       <r>   -4.3171    1.0000 </r>
       <r>   -2.7395    1.0000 </r>
       <r>    0.3648    1.0000 </r>
       <r>    1.2768    1.0000 </r>
       <r>    6.6062    0.0000 </r>
       <r>    6.9803    0.0000 </r>
       <r>    8.0064    0.0000 </r>
       <r>    9.4565    0.0000 </r>
      </set>
      <set comment="kpoint 55">
       <r>   -3.9720    1.0000 </r>
       <r>   -3.0813    1.0000 </r>
       <r>    0.5669    1.0000 </r>
       <r>    0.8797    1.0000 </r>
       <r>    6.3142    0.0000 </r>
       <r>    6.5046    0.0000 </r>
       <r>    8.3599    0.0000 </r>
       <r>    9.6642    0.0000 </r>
      </set>
      <set comment="kpoint 56">
       <r>   -3.8327    1.0000 </r>
       <r>   -3.2066    1.0000 </r>
       <r>    0.3672    1.0000 </r>
       <r>    0.9042    1.0000 </r>
       <r>    6.5977    0.0000 </r>
       <r>    7.8468    0.0000 </r>
       <r>    8.0367    0.0000 </r>
       <r>    8.1885    0.0000 </r>
      </set>
     </set>
    </set>
   </array>
  </eigenvalues>
  <separator name="orbital magnetization" >
   <v name="MAGDIPOLOUT">      0.00000000      0.00000000      0.00000000</v>
  </separator>
  <dos>
   <i name="efermi">      3.85257373 </i>
   <total>
    <array>
     <dimension dim="1">gridpoints</dimension>
     <dimension dim="2">spin</dimension>
     <field>energy</field>
     <field>total</field>
     <field>integrated</field>
     <set>
      <set comment="spin 1">
       <r>    -7.9200     0.0000     0.0000 </r>
       <r>    -7.8525     0.0000     0.0000 </r>
       <r>    -7.7850     0.0000     0.0000 </r>
       <r>    -7.7174     0.0000     0.0000 </r>
       <r>    -7.6499     0.0000     0.0000 </r>
       <r>    -7.5824     0.0000     0.0000 </r>
       <r>    -7.5149     0.0000     0.0000 </r>
       <r>    -7.4474     0.0000     0.0000 </r>
       <r>    -7.3798     0.0000     0.0000 </r>
       <r>    -7.3123     0.0000     0.0000 </r>
       <r>    -7.2448     0.0000     0.0000 </r>
       <r>    -7.1773     0.0000     0.0000 </r>
       <r>    -7.1098     0.0001     0.0000 </r>
       <r>    -7.0422     0.0012     0.0001 </r>
       <r>    -6.9747     0.0087     0.0007 </r>
       <r>    -6.9072     0.0388     0.0033 </r>
       <r>    -6.8397     0.0984     0.0099 </r>
       <r>    -6.7722     0.1445     0.0197 </r>
       <r>    -6.7047     0.1806     0.0319 </r>
       <r>    -6.6371     0.2660     0.0498 </r>
       <r>    -6.5696     0.3172     0.0713 </r>
       <r>    -6.5021     0.2521     0.0883 </r>
       <r>    -6.4346     0.2532     0.1054 </r>
       <r>    -6.3671     0.4006     0.1324 </r>
       <r>    -6.2995     0.4675     0.1640 </r>
       <r>    -6.2320     0.4312     0.1931 </r>
       <r>    -6.1645     0.4193     0.2214 </r>
       <r>    -6.0970     0.3675     0.2462 </r>
       <r>    -6.0295     0.3542     0.2702 </r>
       <r>    -5.9619     0.5591     0.3079 </r>
       <r>    -5.8944     0.7149     0.3562 </r>
       <r>    -5.8269     0.6088     0.3973 </r>
       <r>    -5.7594     0.5685     0.4357 </r>
       <r>    -5.6919     0.5649     0.4738 </r>
       <r>    -5.6243     0.4485     0.5041 </r>
       <r>    -5.5568     0.4791     0.5364 </r>
       <r>    -5.4893     0.7933     0.5900 </r>
       <r>    -5.4218     1.0327     0.6597 </r>
       <r>    -5.3543     0.9484     0.7238 </r>
       <r>    -5.2867     0.8177     0.7790 </r>
       <r>    -5.2192     0.7402     0.8289 </r>
       <r>    -5.1517     0.6488     0.8727 </r>
       <r>    -5.0842     0.8144     0.9277 </r>
       <r>    -5.0167     1.3279     1.0174 </r>
       <r>    -4.9491     1.5327     1.1209 </r>
       <r>    -4.8816     1.1353     1.1975 </r>
       <r>    -4.8141     0.8955     1.2580 </r>
       <r>    -4.7466     0.8110     1.3128 </r>
       <r>    -4.6791     0.6246     1.3549 </r>
       <r>    -4.6116     0.7964     1.4087 </r>
       <r>    -4.5440     1.1412     1.4858 </r>
       <r>    -4.4765     1.1544     1.5637 </r>
       <r>    -4.4090     0.8066     1.6182 </r>
       <r>    -4.3415     0.5346     1.6543 </r>
       <r>    -4.2740     0.4939     1.6876 </r>
       <r>    -4.2064     0.5417     1.7242 </r>
       <r>    -4.1389     0.7754     1.7765 </r>
       <r>    -4.0714     0.8629     1.8348 </r>
       <r>    -4.0039     0.6068     1.8758 </r>
       <r>    -3.9364     0.3615     1.9002 </r>
       <r>    -3.8688     0.2776     1.9189 </r>
       <r>    -3.8013     0.2990     1.9391 </r>
       <r>    -3.7338     0.3261     1.9611 </r>
       <r>    -3.6663     0.3013     1.9815 </r>
       <r>    -3.5988     0.2287     1.9969 </r>
       <r>    -3.5312     0.1713     2.0085 </r>
       <r>    -3.4637     0.1549     2.0190 </r>
       <r>    -3.3962     0.1922     2.0319 </r>
       <r>    -3.3287     0.2194     2.0467 </r>
       <r>    -3.2612     0.2031     2.0605 </r>
       <r>    -3.1936     0.2488     2.0773 </r>
       <r>    -3.1261     0.3564     2.1013 </r>
       <r>    -3.0586     0.5910     2.1412 </r>
       <r>    -2.9911     0.8229     2.1968 </r>
       <r>    -2.9236     0.7836     2.2497 </r>
       <r>    -2.8561     0.5426     2.2863 </r>
       <r>    -2.7885     0.3981     2.3132 </r>
       <r>    -2.7210     0.5001     2.3470 </r>
       <r>    -2.6535     0.7510     2.3977 </r>
       <r>    -2.5860     1.2719     2.4836 </r>
       <r>    -2.5185     1.6412     2.5944 </r>
       <r>    -2.4509     1.4510     2.6923 </r>
       <r>    -2.3834     1.2029     2.7736 </r>
       <r>    -2.3159     1.0264     2.8429 </r>
       <r>    -2.2484     0.8036     2.8971 </r>
       <r>    -2.1809     0.7707     2.9492 </r>
       <r>    -2.1133     0.8129     3.0040 </r>
       <r>    -2.0458     0.8538     3.0617 </r>
       <r>    -1.9783     0.8919     3.1219 </r>
       <r>    -1.9108     0.8010     3.1760 </r>
       <r>    -1.8433     0.5516     3.2132 </r>
       <r>    -1.7757     0.2899     3.2328 </r>
       <r>    -1.7082     0.2812     3.2518 </r>
       <r>    -1.6407     0.5604     3.2896 </r>
       <r>    -1.5732     0.7585     3.3409 </r>
       <r>    -1.5057     0.5609     3.3787 </r>
       <r>    -1.4381     0.2726     3.3971 </r>
       <r>    -1.3706     0.2914     3.4168 </r>
       <r>    -1.3031     0.5219     3.4520 </r>
       <r>    -1.2356     0.6295     3.4946 </r>
       <r>    -1.1681     0.4614     3.5257 </r>
       <r>    -1.1005     0.2472     3.5424 </r>
       <r>    -1.0330     0.2143     3.5569 </r>
       <r>    -0.9655     0.2245     3.5720 </r>
       <r>    -0.8980     0.2210     3.5869 </r>
       <r>    -0.8305     0.2313     3.6026 </r>
       <r>    -0.7630     0.2252     3.6178 </r>
       <r>    -0.6954     0.3044     3.6383 </r>
       <r>    -0.6279     0.4405     3.6681 </r>
       <r>    -0.5604     0.4615     3.6992 </r>
       <r>    -0.4929     0.3230     3.7210 </r>
       <r>    -0.4254     0.2447     3.7376 </r>
       <r>    -0.3578     0.1961     3.7508 </r>
       <r>    -0.2903     0.0882     3.7567 </r>
       <r>    -0.2228     0.0219     3.7582 </r>
       <r>    -0.1553     0.0367     3.7607 </r>
       <r>    -0.0878     0.1470     3.7706 </r>
       <r>    -0.0202     0.3028     3.7911 </r>
       <r>     0.0473     0.3432     3.8142 </r>
       <r>     0.1148     0.2963     3.8343 </r>
       <r>     0.1823     0.4268     3.8631 </r>
       <r>     0.2498     0.7937     3.9167 </r>
       <r>     0.3174     1.1845     3.9966 </r>
       <r>     0.3849     1.3938     4.0907 </r>
       <r>     0.4524     1.4316     4.1874 </r>
       <r>     0.5199     1.6761     4.3006 </r>
       <r>     0.5874     1.8818     4.4276 </r>
       <r>     0.6550     1.5348     4.5313 </r>
       <r>     0.7225     1.0889     4.6048 </r>
       <r>     0.7900     0.7645     4.6564 </r>
       <r>     0.8575     0.8337     4.7127 </r>
       <r>     0.9250     1.3199     4.8018 </r>
       <r>     0.9925     1.5786     4.9084 </r>
       <r>     1.0601     1.5335     5.0119 </r>
       <r>     1.1276     1.4396     5.1091 </r>
       <r>     1.1951     1.5236     5.2120 </r>
       <r>     1.2626     1.8358     5.3360 </r>
       <r>     1.3301     2.0290     5.4730 </r>
       <r>     1.3977     1.9461     5.6044 </r>
       <r>     1.4652     1.8770     5.7311 </r>
       <r>     1.5327     1.7839     5.8515 </r>
       <r>     1.6002     1.5696     5.9575 </r>
       <r>     1.6677     1.5815     6.0643 </r>
       <r>     1.7353     1.7511     6.1825 </r>
       <r>     1.8028     1.7886     6.3033 </r>
       <r>     1.8703     1.6498     6.4147 </r>
       <r>     1.9378     1.4377     6.5118 </r>
       <r>     2.0053     1.5462     6.6162 </r>
       <r>     2.0729     1.8505     6.7411 </r>
       <r>     2.1404     1.7839     6.8616 </r>
       <r>     2.2079     1.5282     6.9647 </r>
       <r>     2.2754     1.4776     7.0645 </r>
       <r>     2.3429     1.6548     7.1762 </r>
       <r>     2.4105     1.6059     7.2847 </r>
       <r>     2.4780     1.1952     7.3654 </r>
       <r>     2.5455     1.0505     7.4363 </r>
       <r>     2.6130     1.3503     7.5275 </r>
       <r>     2.6805     1.3008     7.6153 </r>
       <r>     2.7481     0.7777     7.6678 </r>
       <r>     2.8156     0.6166     7.7094 </r>
       <r>     2.8831     0.8871     7.7693 </r>
       <r>     2.9506     0.8909     7.8295 </r>
       <r>     3.0181     0.5113     7.8640 </r>
       <r>     3.0856     0.2558     7.8813 </r>
       <r>     3.1532     0.3257     7.9033 </r>
       <r>     3.2207     0.4105     7.9310 </r>
       <r>     3.2882     0.2684     7.9491 </r>
       <r>     3.3557     0.1559     7.9596 </r>
       <r>     3.4232     0.2134     7.9740 </r>
       <r>     3.4908     0.2183     7.9888 </r>
       <r>     3.5583     0.1139     7.9965 </r>
       <r>     3.6258     0.0394     7.9991 </r>
       <r>     3.6933     0.0109     7.9999 </r>
       <r>     3.7608     0.0018     8.0000 </r>
       <r>     3.8284     0.0001     8.0000 </r>
       <r>     3.8959     0.0000     8.0000 </r>
       <r>     3.9634     0.0004     8.0000 </r>
       <r>     4.0309     0.0053     8.0004 </r>
       <r>     4.0984     0.0286     8.0023 </r>
       <r>     4.1660     0.0712     8.0071 </r>
       <r>     4.2335     0.1021     8.0140 </r>
       <r>     4.3010     0.1243     8.0224 </r>
       <r>     4.3685     0.1464     8.0323 </r>
       <r>     4.4360     0.1593     8.0430 </r>
       <r>     4.5036     0.2367     8.0590 </r>
       <r>     4.5711     0.3791     8.0846 </r>
       <r>     4.6386     0.4343     8.1139 </r>
       <r>     4.7061     0.5496     8.1510 </r>
       <r>     4.7736     0.8388     8.2077 </r>
       <r>     4.8411     1.0301     8.2772 </r>
       <r>     4.9087     1.0892     8.3508 </r>
       <r>     4.9762     1.2738     8.4368 </r>
       <r>     5.0437     1.3106     8.5253 </r>
       <r>     5.1112     1.0256     8.5945 </r>
       <r>     5.1787     1.2248     8.6772 </r>
       <r>     5.2463     2.0977     8.8189 </r>
       <r>     5.3138     2.4543     8.9846 </r>
       <r>     5.3813     1.9037     9.1131 </r>
       <r>     5.4488     1.6529     9.2247 </r>
       <r>     5.5163     1.8706     9.3510 </r>
       <r>     5.5839     1.9042     9.4796 </r>
       <r>     5.6514     1.7693     9.5990 </r>
       <r>     5.7189     1.7750     9.7189 </r>
       <r>     5.7864     1.5371     9.8227 </r>
       <r>     5.8539     1.0426     9.8931 </r>
       <r>     5.9215     0.9296     9.9558 </r>
       <r>     5.9890     0.8870    10.0157 </r>
       <r>     6.0565     0.6188    10.0575 </r>
       <r>     6.1240     0.5636    10.0956 </r>
       <r>     6.1915     0.7643    10.1472 </r>
       <r>     6.2591     1.1470    10.2246 </r>
       <r>     6.3266     1.6758    10.3378 </r>
       <r>     6.3941     1.9263    10.4678 </r>
       <r>     6.4616     1.6422    10.5787 </r>
       <r>     6.5291     1.5448    10.6830 </r>
       <r>     6.5967     2.0035    10.8183 </r>
       <r>     6.6642     2.4483    10.9836 </r>
       <r>     6.7317     2.3828    11.1445 </r>
       <r>     6.7992     1.8827    11.2716 </r>
       <r>     6.8667     1.4876    11.3720 </r>
       <r>     6.9342     1.5664    11.4778 </r>
       <r>     7.0018     1.8647    11.6037 </r>
       <r>     7.0693     1.8823    11.7308 </r>
       <r>     7.1368     1.7159    11.8467 </r>
       <r>     7.2043     1.6289    11.9566 </r>
       <r>     7.2718     1.6381    12.0673 </r>
       <r>     7.3394     1.6096    12.1759 </r>
       <r>     7.4069     1.3376    12.2662 </r>
       <r>     7.4744     0.7849    12.3192 </r>
       <r>     7.5419     0.3877    12.3454 </r>
       <r>     7.6094     0.4312    12.3745 </r>
       <r>     7.6770     1.0839    12.4477 </r>
       <r>     7.7445     2.1398    12.5922 </r>
       <r>     7.8120     2.6308    12.7698 </r>
       <r>     7.8795     2.2239    12.9200 </r>
       <r>     7.9470     1.8093    13.0421 </r>
       <r>     8.0146     2.0454    13.1802 </r>
       <r>     8.0821     2.3197    13.3369 </r>
       <r>     8.1496     1.8429    13.4613 </r>
       <r>     8.2171     1.3055    13.5495 </r>
       <r>     8.2846     1.1584    13.6277 </r>
       <r>     8.3522     1.2236    13.7103 </r>
       <r>     8.4197     1.3332    13.8003 </r>
       <r>     8.4872     1.2047    13.8816 </r>
       <r>     8.5547     0.9455    13.9455 </r>
       <r>     8.6222     0.9741    14.0112 </r>
       <r>     8.6897     1.4217    14.1072 </r>
       <r>     8.7573     1.7275    14.2239 </r>
       <r>     8.8248     1.4402    14.3211 </r>
       <r>     8.8923     1.0384    14.3912 </r>
       <r>     8.9598     1.1066    14.4660 </r>
       <r>     9.0273     1.5539    14.5709 </r>
       <r>     9.0949     1.6852    14.6847 </r>
       <r>     9.1624     1.1653    14.7633 </r>
       <r>     9.2299     0.7062    14.8110 </r>
       <r>     9.2974     0.7019    14.8584 </r>
       <r>     9.3649     0.7332    14.9079 </r>
       <r>     9.4325     0.7729    14.9601 </r>
       <r>     9.5000     0.8929    15.0204 </r>
       <r>     9.5675     0.8964    15.0809 </r>
       <r>     9.6350     0.9389    15.1443 </r>
       <r>     9.7025     0.8746    15.2034 </r>
       <r>     9.7701     0.5917    15.2433 </r>
       <r>     9.8376     0.6171    15.2850 </r>
       <r>     9.9051     0.9134    15.3467 </r>
       <r>     9.9726     1.0669    15.4187 </r>
       <r>    10.0401     1.1001    15.4930 </r>
       <r>    10.1077     1.1027    15.5674 </r>
       <r>    10.1752     1.0004    15.6350 </r>
       <r>    10.2427     0.9084    15.6963 </r>
       <r>    10.3102     0.9099    15.7577 </r>
       <r>    10.3777     0.7128    15.8059 </r>
       <r>    10.4453     0.4041    15.8332 </r>
       <r>    10.5128     0.2689    15.8513 </r>
       <r>    10.5803     0.2261    15.8666 </r>
       <r>    10.6478     0.2479    15.8833 </r>
       <r>    10.7153     0.2393    15.8995 </r>
       <r>    10.7828     0.1221    15.9077 </r>
       <r>    10.8504     0.0290    15.9097 </r>
       <r>    10.9179     0.0115    15.9105 </r>
       <r>    10.9854     0.0566    15.9143 </r>
       <r>    11.0529     0.1595    15.9250 </r>
       <r>    11.1204     0.2084    15.9391 </r>
       <r>    11.1880     0.1912    15.9520 </r>
       <r>    11.2555     0.2345    15.9679 </r>
       <r>    11.3230     0.2471    15.9845 </r>
       <r>    11.3905     0.1586    15.9953 </r>
       <r>    11.4580     0.0583    15.9992 </r>
       <r>    11.5256     0.0110    15.9999 </r>
       <r>    11.5931     0.0010    16.0000 </r>
       <r>    11.6606     0.0000    16.0000 </r>
       <r>    11.7281     0.0000    16.0000 </r>
       <r>    11.7956     0.0000    16.0000 </r>
       <r>    11.8632     0.0000    16.0000 </r>
       <r>    11.9307     0.0000    16.0000 </r>
       <r>    11.9982     0.0000    16.0000 </r>
       <r>    12.0657     0.0000    16.0000 </r>
       <r>    12.1332     0.0000    16.0000 </r>
       <r>    12.2008     0.0000    16.0000 </r>
       <r>    12.2683     0.0000    16.0000 </r>
       <r>    12.3358     0.0000    16.0000 </r>
      </set>
     </set>
    </array>
   </total>
  </dos>
 </calculation>
 <structure name="finalpos" >
  <crystal>
   <varray name="basis" >
    <v>       0.00000000       2.94491175       2.94491175 </v>
    <v>       2.94491175       0.00000000       2.94491175 </v>
    <v>       2.94491175       2.94491175       0.00000000 </v>
   </varray>
   <i name="volume">     51.07952478 </i>
   <varray name="rec_basis" >
    <v>      -0.16978437       0.16978437       0.16978437 </v>
    <v>       0.16978437      -0.16978437       0.16978437 </v>
    <v>       0.16978437       0.16978437      -0.16978437 </v>
   </varray>
  </crystal>
  <varray name="positions" >
   <v>       0.87500000       0.87500000       0.87500000 </v>
   <v>       0.12500000       0.12500000       0.12500000 </v>
  </varray>
 </structure>
</modeling>
