diamond Si                              
           1
     0.000000    2.944912    2.944912
     2.944912    0.000000    2.944912
     2.944912    2.944912    0.000000
   Si
   2
Direct configuration=     1
   0.87500000  0.87500000  0.87500000
   0.12500000  0.12500000  0.12500000
