a= 4.5
 running on    1 total cores
 distrk:  each k-point on    1 cores,    1 groups
 distr:  one band on    1 cores,    1 groups
 using from now: INCAR     
 vasp.5.3.5 31Mar14 (build Feb  5 2015 19:39:53) complex                        
  
 POSCAR found type information on POSCAR  Si
 POSCAR found :  1 types and       2 ions
 scaLAPACK will be used
 LDA part: xc-table for Ceperly-Alder, standard interpolation
 POSCAR, INCAR and KPOINTS ok, starting setup
 WARNING: small aliasing (wrap around) errors must be expected
 FFT: planning ...
 WAVECAR not read
 entering main loop
       N       E                     dE             d eps       ncg     rms          rms(c)
DAV:   1     0.212080944175E+01    0.21208E+01   -0.22376E+03   960   0.437E+02
DAV:   2    -0.619362705417E+01   -0.83144E+01   -0.76471E+01  1416   0.586E+01
DAV:   3    -0.624466136125E+01   -0.51034E-01   -0.51024E-01  1032   0.556E+00
DAV:   4    -0.624474533000E+01   -0.83969E-04   -0.83969E-04  1480   0.222E-01
DAV:   5    -0.624474534878E+01   -0.18777E-07   -0.18252E-07  1112   0.234E-03    0.483E+00
DAV:   6    -0.557403375274E+01    0.67071E+00   -0.55763E-01   936   0.422E+00    0.247E+00
DAV:   7    -0.536045509770E+01    0.21358E+00   -0.51159E-01  1104   0.408E+00    0.308E-01
DAV:   8    -0.535899023038E+01    0.14649E-02   -0.84332E-03  1032   0.794E-01    0.392E-02
DAV:   9    -0.535893179379E+01    0.58437E-04   -0.21618E-04   968   0.969E-02
   1 F= -.53589318E+01 E0= -.53579273E+01  d E =-.200904E-02
 writing wavefunctions
a= 4.6
 running on    1 total cores
 distrk:  each k-point on    1 cores,    1 groups
 distr:  one band on    1 cores,    1 groups
 using from now: INCAR     
 vasp.5.3.5 31Mar14 (build Feb  5 2015 19:39:53) complex                        
  
 POSCAR found type information on POSCAR  Si
 POSCAR found :  1 types and       2 ions
 scaLAPACK will be used
 LDA part: xc-table for Ceperly-Alder, standard interpolation
 POSCAR, INCAR and KPOINTS ok, starting setup
 WARNING: small aliasing (wrap around) errors must be expected
 FFT: planning ...
 WAVECAR not read
 entering main loop
       N       E                     dE             d eps       ncg     rms          rms(c)
DAV:   1     0.122346754174E+01    0.12235E+01   -0.22299E+03   936   0.437E+02
DAV:   2    -0.763878936151E+01   -0.88623E+01   -0.83472E+01  1424   0.609E+01
DAV:   3    -0.770693213979E+01   -0.68143E-01   -0.68115E-01  1040   0.634E+00
DAV:   4    -0.770705912130E+01   -0.12698E-03   -0.12698E-03  1496   0.268E-01
DAV:   5    -0.770705917881E+01   -0.57507E-07   -0.56471E-07  1056   0.329E-03    0.466E+00
DAV:   6    -0.709756295967E+01    0.60950E+00   -0.51113E-01   936   0.398E+00    0.241E+00
DAV:   7    -0.689941514996E+01    0.19815E+00   -0.50049E-01  1072   0.398E+00    0.286E-01
DAV:   8    -0.689861118920E+01    0.80396E-03   -0.11414E-02   976   0.846E-01    0.846E-02
DAV:   9    -0.689830277736E+01    0.30841E-03   -0.91093E-04  1248   0.183E-01    0.105E-02
DAV:  10    -0.689830452051E+01   -0.17432E-05   -0.11446E-05   496   0.325E-02
   1 F= -.68983045E+01 E0= -.68972675E+01  d E =-.207408E-02
 writing wavefunctions
a= 4.7
 running on    1 total cores
 distrk:  each k-point on    1 cores,    1 groups
 distr:  one band on    1 cores,    1 groups
 using from now: INCAR     
 vasp.5.3.5 31Mar14 (build Feb  5 2015 19:39:53) complex                        
  
 POSCAR found type information on POSCAR  Si
 POSCAR found :  1 types and       2 ions
 scaLAPACK will be used
 LDA part: xc-table for Ceperly-Alder, standard interpolation
 POSCAR, INCAR and KPOINTS ok, starting setup
 WARNING: small aliasing (wrap around) errors must be expected
 FFT: planning ...
 WAVECAR not read
 entering main loop
       N       E                     dE             d eps       ncg     rms          rms(c)
DAV:   1    -0.119943052210E+00   -0.11994E+00   -0.22658E+03   928   0.443E+02
DAV:   2    -0.883995668605E+01   -0.87200E+01   -0.84644E+01  1360   0.613E+01
DAV:   3    -0.890031814455E+01   -0.60361E-01   -0.60347E-01  1104   0.627E+00
DAV:   4    -0.890043865601E+01   -0.12051E-03   -0.12051E-03  1448   0.267E-01
DAV:   5    -0.890043883343E+01   -0.17742E-06   -0.17784E-06  1088   0.493E-03    0.448E+00
DAV:   6    -0.835047457582E+01    0.54996E+00   -0.46045E-01   936   0.373E+00    0.235E+00
DAV:   7    -0.816705170781E+01    0.18342E+00   -0.47902E-01  1088   0.385E+00    0.270E-01
DAV:   8    -0.816659993776E+01    0.45177E-03   -0.97706E-03  1024   0.799E-01    0.641E-02
DAV:   9    -0.816642282945E+01    0.17711E-03   -0.56351E-04  1208   0.145E-01    0.115E-02
DAV:  10    -0.816642438295E+01   -0.15535E-05   -0.82159E-06   488   0.268E-02
   1 F= -.81664244E+01 E0= -.81653568E+01  d E =-.213516E-02
 writing wavefunctions
a= 4.8
 running on    1 total cores
 distrk:  each k-point on    1 cores,    1 groups
 distr:  one band on    1 cores,    1 groups
 using from now: INCAR     
 vasp.5.3.5 31Mar14 (build Feb  5 2015 19:39:53) complex                        
  
 POSCAR found type information on POSCAR  Si
 POSCAR found :  1 types and       2 ions
 scaLAPACK will be used
 LDA part: xc-table for Ceperly-Alder, standard interpolation
 POSCAR, INCAR and KPOINTS ok, starting setup
 WARNING: small aliasing (wrap around) errors must be expected
 FFT: planning ...
 WAVECAR not read
 entering main loop
       N       E                     dE             d eps       ncg     rms          rms(c)
DAV:   1    -0.740477248669E+00   -0.74048E+00   -0.21455E+03   960   0.434E+02
DAV:   2    -0.978649321888E+01   -0.90460E+01   -0.84464E+01  1360   0.582E+01
DAV:   3    -0.985731244104E+01   -0.70819E-01   -0.70805E-01  1144   0.646E+00
DAV:   4    -0.985745488008E+01   -0.14244E-03   -0.14244E-03  1408   0.284E-01
DAV:   5    -0.985745491729E+01   -0.37215E-07   -0.36711E-07  1168   0.428E-03    0.429E+00
DAV:   6    -0.936596579442E+01    0.49149E+00   -0.40783E-01   936   0.347E+00    0.229E+00
DAV:   7    -0.919627853107E+01    0.16969E+00   -0.46725E-01  1072   0.375E+00    0.254E-01
DAV:   8    -0.919624376349E+01    0.34768E-04   -0.13592E-02  1008   0.858E-01    0.110E-01
DAV:   9    -0.919570538385E+01    0.53838E-03   -0.15096E-03  1264   0.227E-01    0.111E-02
DAV:  10    -0.919570868190E+01   -0.32980E-05   -0.20001E-05   552   0.423E-02
   1 F= -.91957087E+01 E0= -.91949024E+01  d E =-.161252E-02
 writing wavefunctions
a= 4.9
 running on    1 total cores
 distrk:  each k-point on    1 cores,    1 groups
 distr:  one band on    1 cores,    1 groups
 using from now: INCAR     
 vasp.5.3.5 31Mar14 (build Feb  5 2015 19:39:53) complex                        
  
 POSCAR found type information on POSCAR  Si
 POSCAR found :  1 types and       2 ions
 scaLAPACK will be used
 LDA part: xc-table for Ceperly-Alder, standard interpolation
 POSCAR, INCAR and KPOINTS ok, starting setup
 WARNING: small aliasing (wrap around) errors must be expected
 FFT: planning ...
 WAVECAR not read
 entering main loop
       N       E                     dE             d eps       ncg     rms          rms(c)
DAV:   1    -0.194584337679E+01   -0.19458E+01   -0.22171E+03   912   0.437E+02
DAV:   2    -0.105417319506E+02   -0.85959E+01   -0.84013E+01  1400   0.584E+01
DAV:   3    -0.106090636613E+02   -0.67332E-01   -0.67332E-01  1120   0.641E+00
DAV:   4    -0.106092340339E+02   -0.17037E-03   -0.17037E-03  1496   0.271E-01
DAV:   5    -0.106092340601E+02   -0.26239E-07   -0.24433E-07  1136   0.324E-03    0.410E+00
DAV:   6    -0.101743583594E+02    0.43488E+00   -0.35626E-01   920   0.320E+00    0.222E+00
DAV:   7    -0.100171708141E+02    0.15719E+00   -0.44205E-01  1080   0.361E+00    0.241E-01
DAV:   8    -0.100173689254E+02   -0.19811E-03   -0.14085E-02   984   0.854E-01    0.118E-01
DAV:   9    -0.100167481757E+02    0.62075E-03   -0.17155E-03  1240   0.238E-01    0.118E-02
DAV:  10    -0.100167526570E+02   -0.44813E-05   -0.23584E-05   584   0.459E-02
   1 F= -.10016753E+02 E0= -.10015858E+02  d E =-.178976E-02
 writing wavefunctions
a= 5.0
 running on    1 total cores
 distrk:  each k-point on    1 cores,    1 groups
 distr:  one band on    1 cores,    1 groups
 using from now: INCAR     
 vasp.5.3.5 31Mar14 (build Feb  5 2015 19:39:53) complex                        
  
 POSCAR found type information on POSCAR  Si
 POSCAR found :  1 types and       2 ions
 scaLAPACK will be used
 LDA part: xc-table for Ceperly-Alder, standard interpolation
 POSCAR, INCAR and KPOINTS ok, starting setup
 WARNING: small aliasing (wrap around) errors must be expected
 FFT: planning ...
 WAVECAR not read
 entering main loop
       N       E                     dE             d eps       ncg     rms          rms(c)
DAV:   1    -0.150926120771E+01   -0.15093E+01   -0.22005E+03   920   0.436E+02
DAV:   2    -0.111033589511E+02   -0.95941E+01   -0.90499E+01  1400   0.596E+01
DAV:   3    -0.111844455977E+02   -0.81087E-01   -0.81087E-01  1048   0.692E+00
DAV:   4    -0.111846844142E+02   -0.23882E-03   -0.23882E-03  1504   0.358E-01
DAV:   5    -0.111846844808E+02   -0.66508E-07   -0.66878E-07  1088   0.484E-03    0.391E+00
DAV:   6    -0.108027411310E+02    0.38194E+00   -0.30803E-01   944   0.294E+00    0.215E+00
DAV:   7    -0.106590625149E+02    0.14368E+00   -0.40473E-01  1088   0.341E+00    0.228E-01
DAV:   8    -0.106592087043E+02   -0.14619E-03   -0.11221E-02   976   0.782E-01    0.866E-02
DAV:   9    -0.106588629535E+02    0.34575E-03   -0.10202E-03  1232   0.185E-01    0.126E-02
DAV:  10    -0.106588665038E+02   -0.35503E-05   -0.14316E-05   520   0.354E-02
   1 F= -.10658867E+02 E0= -.10658242E+02  d E =-.124816E-02
 writing wavefunctions
a= 5.1
 running on    1 total cores
 distrk:  each k-point on    1 cores,    1 groups
 distr:  one band on    1 cores,    1 groups
 using from now: INCAR     
 vasp.5.3.5 31Mar14 (build Feb  5 2015 19:39:53) complex                        
  
 POSCAR found type information on POSCAR  Si
 POSCAR found :  1 types and       2 ions
 scaLAPACK will be used
 LDA part: xc-table for Ceperly-Alder, standard interpolation
 POSCAR, INCAR and KPOINTS ok, starting setup
 WARNING: small aliasing (wrap around) errors must be expected
 FFT: planning ...
 WAVECAR not read
 entering main loop
       N       E                     dE             d eps       ncg     rms          rms(c)
DAV:   1    -0.361303148537E+01   -0.36130E+01   -0.20945E+03   920   0.428E+02
DAV:   2    -0.115436703926E+02   -0.79306E+01   -0.77772E+01  1408   0.560E+01
DAV:   3    -0.116061653574E+02   -0.62495E-01   -0.62495E-01  1128   0.603E+00
DAV:   4    -0.116063108334E+02   -0.14548E-03   -0.14548E-03  1472   0.277E-01
DAV:   5    -0.116063108848E+02   -0.51411E-07   -0.52116E-07  1160   0.430E-03    0.373E+00
DAV:   6    -0.112725948119E+02    0.33372E+00   -0.26371E-01  1008   0.269E+00    0.207E+00
DAV:   7    -0.111423615818E+02    0.13023E+00   -0.36402E-01  1072   0.320E+00    0.215E-01
DAV:   8    -0.111424759078E+02   -0.11433E-03   -0.90191E-03   960   0.717E-01    0.588E-02
DAV:   9    -0.111423090611E+02    0.16685E-03   -0.54227E-04  1336   0.138E-01    0.130E-02
DAV:  10    -0.111423119554E+02   -0.28944E-05   -0.81515E-06   544   0.266E-02
   1 F= -.11142312E+02 E0= -.11141985E+02  d E =-.653108E-03
 writing wavefunctions
a= 5.2
 running on    1 total cores
 distrk:  each k-point on    1 cores,    1 groups
 distr:  one band on    1 cores,    1 groups
 using from now: INCAR     
 vasp.5.3.5 31Mar14 (build Feb  5 2015 19:39:53) complex                        
  
 POSCAR found type information on POSCAR  Si
 POSCAR found :  1 types and       2 ions
 scaLAPACK will be used
 LDA part: xc-table for Ceperly-Alder, standard interpolation
 POSCAR, INCAR and KPOINTS ok, starting setup
 WARNING: small aliasing (wrap around) errors must be expected
 FFT: planning ...
 WAVECAR not read
 entering main loop
       N       E                     dE             d eps       ncg     rms          rms(c)
DAV:   1    -0.202464091997E+01   -0.20246E+01   -0.21381E+03   928   0.436E+02
DAV:   2    -0.118084909612E+02   -0.97839E+01   -0.92291E+01  1464   0.574E+01
DAV:   3    -0.118963963379E+02   -0.87905E-01   -0.87905E-01  1064   0.695E+00
DAV:   4    -0.118966793572E+02   -0.28302E-03   -0.28302E-03  1488   0.401E-01
DAV:   5    -0.118966794001E+02   -0.42909E-07   -0.41949E-07  1120   0.498E-03    0.355E+00
DAV:   6    -0.116063844829E+02    0.29029E+00   -0.22352E-01   984   0.244E+00    0.199E+00
DAV:   7    -0.114891489019E+02    0.11724E+00   -0.32342E-01  1120   0.298E+00    0.203E-01
DAV:   8    -0.114892528719E+02   -0.10397E-03   -0.76445E-03   976   0.664E-01    0.433E-02
DAV:   9    -0.114891619366E+02    0.90935E-04   -0.32638E-04  1304   0.110E-01
   1 F= -.11489162E+02 E0= -.11489002E+02  d E =-.320310E-03
 writing wavefunctions
a= 5.3
 running on    1 total cores
 distrk:  each k-point on    1 cores,    1 groups
 distr:  one band on    1 cores,    1 groups
 using from now: INCAR     
 vasp.5.3.5 31Mar14 (build Feb  5 2015 19:39:53) complex                        
  
 POSCAR found type information on POSCAR  Si
 POSCAR found :  1 types and       2 ions
 scaLAPACK will be used
 LDA part: xc-table for Ceperly-Alder, standard interpolation
 POSCAR, INCAR and KPOINTS ok, starting setup
 WARNING: small aliasing (wrap around) errors must be expected
 FFT: planning ...
 WAVECAR not read
 entering main loop
       N       E                     dE             d eps       ncg     rms          rms(c)
DAV:   1    -0.275660506979E+01   -0.27566E+01   -0.21315E+03   936   0.432E+02
DAV:   2    -0.119877683842E+02   -0.92312E+01   -0.89823E+01  1400   0.585E+01
DAV:   3    -0.120747995670E+02   -0.87031E-01   -0.87031E-01  1192   0.687E+00
DAV:   4    -0.120750051887E+02   -0.20562E-03   -0.20562E-03  1384   0.330E-01
DAV:   5    -0.120750052686E+02   -0.79859E-07   -0.79667E-07  1200   0.602E-03    0.339E+00
DAV:   6    -0.118234289355E+02    0.25158E+00   -0.18762E-01   992   0.221E+00    0.192E+00
DAV:   7    -0.117182438811E+02    0.10519E+00   -0.28449E-01  1112   0.277E+00    0.191E-01
DAV:   8    -0.117183419024E+02   -0.98021E-04   -0.67042E-03   992   0.617E-01    0.350E-02
DAV:   9    -0.117182832291E+02    0.58673E-04   -0.23126E-04  1336   0.936E-02
   1 F= -.11718283E+02 E0= -.11718238E+02  d E =-.894876E-04
 writing wavefunctions
a= 5.4
 running on    1 total cores
 distrk:  each k-point on    1 cores,    1 groups
 distr:  one band on    1 cores,    1 groups
 using from now: INCAR     
 vasp.5.3.5 31Mar14 (build Feb  5 2015 19:39:53) complex                        
  
 POSCAR found type information on POSCAR  Si
 POSCAR found :  1 types and       2 ions
 scaLAPACK will be used
 LDA part: xc-table for Ceperly-Alder, standard interpolation
 POSCAR, INCAR and KPOINTS ok, starting setup
 WARNING: small aliasing (wrap around) errors must be expected
 FFT: planning ...
 WAVECAR not read
 entering main loop
       N       E                     dE             d eps       ncg     rms          rms(c)
DAV:   1    -0.304437233885E+01   -0.30444E+01   -0.21094E+03   912   0.431E+02
DAV:   2    -0.120621744099E+02   -0.90178E+01   -0.87473E+01  1392   0.575E+01
DAV:   3    -0.121577931242E+02   -0.95619E-01   -0.95619E-01  1120   0.724E+00
DAV:   4    -0.121581630099E+02   -0.36989E-03   -0.36989E-03  1472   0.401E-01
DAV:   5    -0.121581630942E+02   -0.84367E-07   -0.84071E-07  1144   0.643E-03    0.323E+00
DAV:   6    -0.119408325921E+02    0.21733E+00   -0.15583E-01  1024   0.199E+00    0.184E+00
DAV:   7    -0.118465868522E+02    0.94246E-01   -0.24818E-01  1080   0.256E+00    0.178E-01
DAV:   8    -0.118466921165E+02   -0.10526E-03   -0.60877E-03  1016   0.581E-01    0.314E-02
DAV:   9    -0.118466459093E+02    0.46207E-04   -0.19254E-04  1248   0.857E-02
   1 F= -.11846646E+02 E0= -.11846639E+02  d E =-.146905E-04
 writing wavefunctions
a= 5.5
 running on    1 total cores
 distrk:  each k-point on    1 cores,    1 groups
 distr:  one band on    1 cores,    1 groups
 using from now: INCAR     
 vasp.5.3.5 31Mar14 (build Feb  5 2015 19:39:53) complex                        
  
 POSCAR found type information on POSCAR  Si
 POSCAR found :  1 types and       2 ions
 scaLAPACK will be used
 LDA part: xc-table for Ceperly-Alder, standard interpolation
 POSCAR, INCAR and KPOINTS ok, starting setup
 WARNING: small aliasing (wrap around) errors must be expected
 FFT: planning ...
 WAVECAR not read
 entering main loop
       N       E                     dE             d eps       ncg     rms          rms(c)
DAV:   1    -0.427038850474E+01   -0.42704E+01   -0.20917E+03   928   0.424E+02
DAV:   2    -0.120899455769E+02   -0.78196E+01   -0.73830E+01  1432   0.531E+01
DAV:   3    -0.121617401286E+02   -0.71795E-01   -0.71795E-01  1184   0.610E+00
DAV:   4    -0.121619255038E+02   -0.18538E-03   -0.18538E-03  1408   0.311E-01
DAV:   5    -0.121619255897E+02   -0.85886E-07   -0.85826E-07  1176   0.607E-03    0.308E+00
DAV:   6    -0.119747201849E+02    0.18721E+00   -0.12804E-01  1056   0.179E+00    0.178E+00
DAV:   7    -0.118903137029E+02    0.84406E-01   -0.21458E-01  1072   0.236E+00    0.165E-01
DAV:   8    -0.118904312093E+02   -0.11751E-03   -0.54803E-03   976   0.545E-01    0.293E-02
DAV:   9    -0.118903929572E+02    0.38252E-04   -0.17355E-04  1208   0.819E-02
   1 F= -.11890393E+02 E0= -.11890392E+02  d E =-.166097E-05
 writing wavefunctions
a= 5.6
 running on    1 total cores
 distrk:  each k-point on    1 cores,    1 groups
 distr:  one band on    1 cores,    1 groups
 using from now: INCAR     
 vasp.5.3.5 31Mar14 (build Feb  5 2015 19:39:53) complex                        
  
 POSCAR found type information on POSCAR  Si
 POSCAR found :  1 types and       2 ions
 scaLAPACK will be used
 LDA part: xc-table for Ceperly-Alder, standard interpolation
 POSCAR, INCAR and KPOINTS ok, starting setup
 WARNING: small aliasing (wrap around) errors must be expected
 FFT: planning ...
 WAVECAR not read
 entering main loop
       N       E                     dE             d eps       ncg     rms          rms(c)
DAV:   1    -0.250615758655E+01   -0.25062E+01   -0.21533E+03   904   0.431E+02
DAV:   2    -0.119915435408E+02   -0.94854E+01   -0.91332E+01  1408   0.576E+01
DAV:   3    -0.120990444819E+02   -0.10750E+00   -0.10750E+00  1224   0.736E+00
DAV:   4    -0.120993265655E+02   -0.28208E-03   -0.28208E-03  1352   0.392E-01
DAV:   5    -0.120993268539E+02   -0.28842E-06   -0.28842E-06  1200   0.925E-03    0.294E+00
DAV:   6    -0.119384195841E+02    0.16091E+00   -0.10401E-01  1072   0.160E+00    0.171E+00
DAV:   7    -0.118628140004E+02    0.75606E-01   -0.18387E-01  1072   0.217E+00    0.152E-01
DAV:   8    -0.118629568726E+02   -0.14287E-03   -0.48725E-03   976   0.506E-01    0.276E-02
DAV:   9    -0.118629250219E+02    0.31851E-04   -0.15025E-04  1176   0.763E-02
   1 F= -.11862925E+02 E0= -.11862925E+02  d E =-.140247E-06
 writing wavefunctions
a= 5.7
 running on    1 total cores
 distrk:  each k-point on    1 cores,    1 groups
 distr:  one band on    1 cores,    1 groups
 using from now: INCAR     
 vasp.5.3.5 31Mar14 (build Feb  5 2015 19:39:53) complex                        
  
 POSCAR found type information on POSCAR  Si
 POSCAR found :  1 types and       2 ions
 scaLAPACK will be used
 LDA part: xc-table for Ceperly-Alder, standard interpolation
 POSCAR, INCAR and KPOINTS ok, starting setup
 WARNING: small aliasing (wrap around) errors must be expected
 FFT: planning ...
 WAVECAR not read
 entering main loop
       N       E                     dE             d eps       ncg     rms          rms(c)
DAV:   1    -0.329102641823E+01   -0.32910E+01   -0.20557E+03   920   0.425E+02
DAV:   2    -0.118906033727E+02   -0.85996E+01   -0.82958E+01  1448   0.544E+01
DAV:   3    -0.119819779148E+02   -0.91375E-01   -0.91375E-01  1096   0.683E+00
DAV:   4    -0.119823079307E+02   -0.33002E-03   -0.33002E-03  1496   0.432E-01
DAV:   5    -0.119823081967E+02   -0.26594E-06   -0.26600E-06  1096   0.849E-03    0.280E+00
DAV:   6    -0.118442293214E+02    0.13808E+00   -0.83473E-02  1056   0.142E+00    0.164E+00
DAV:   7    -0.117764898190E+02    0.67740E-01   -0.15619E-01  1088   0.199E+00    0.139E-01
DAV:   8    -0.117766657138E+02   -0.17589E-03   -0.42235E-03   984   0.466E-01    0.263E-02
DAV:   9    -0.117766398386E+02    0.25875E-04   -0.13182E-04  1072   0.720E-02
   1 F= -.11776640E+02 E0= -.11776640E+02  d E =-.129511E-07
 writing wavefunctions
a= 5.8
 running on    1 total cores
 distrk:  each k-point on    1 cores,    1 groups
 distr:  one band on    1 cores,    1 groups
 using from now: INCAR     
 vasp.5.3.5 31Mar14 (build Feb  5 2015 19:39:53) complex                        
  
 POSCAR found type information on POSCAR  Si
 POSCAR found :  1 types and       2 ions
 scaLAPACK will be used
 LDA part: xc-table for Ceperly-Alder, standard interpolation
 POSCAR, INCAR and KPOINTS ok, starting setup
 WARNING: small aliasing (wrap around) errors must be expected
 FFT: planning ...
 WAVECAR not read
 entering main loop
       N       E                     dE             d eps       ncg     rms          rms(c)
DAV:   1    -0.250567068252E+01   -0.25057E+01   -0.19827E+03   928   0.422E+02
DAV:   2    -0.117155359404E+02   -0.92099E+01   -0.88991E+01  1432   0.551E+01
DAV:   3    -0.118194678938E+02   -0.10393E+00   -0.10393E+00  1160   0.714E+00
DAV:   4    -0.118198388133E+02   -0.37092E-03   -0.37092E-03  1424   0.467E-01
DAV:   5    -0.118198389901E+02   -0.17680E-06   -0.17679E-06  1176   0.966E-03    0.268E+00
DAV:   6    -0.117014659716E+02    0.11837E+00   -0.66122E-02  1056   0.125E+00    0.158E+00
DAV:   7    -0.116406587697E+02    0.60807E-01   -0.13152E-01  1064   0.182E+00    0.126E-01
DAV:   8    -0.116408802155E+02   -0.22145E-03   -0.36469E-03   944   0.428E-01    0.254E-02
DAV:   9    -0.116408584643E+02    0.21751E-04   -0.11962E-04   968   0.691E-02
   1 F= -.11640858E+02 E0= -.11640858E+02  d E =-.118027E-08
 writing wavefunctions
a= 5.9
 running on    1 total cores
 distrk:  each k-point on    1 cores,    1 groups
 distr:  one band on    1 cores,    1 groups
 using from now: INCAR     
 vasp.5.3.5 31Mar14 (build Feb  5 2015 19:39:53) complex                        
  
 POSCAR found type information on POSCAR  Si
 POSCAR found :  1 types and       2 ions
 scaLAPACK will be used
 LDA part: xc-table for Ceperly-Alder, standard interpolation
 POSCAR, INCAR and KPOINTS ok, starting setup
 WARNING: small aliasing (wrap around) errors must be expected
 FFT: planning ...
 WAVECAR not read
 entering main loop
       N       E                     dE             d eps       ncg     rms          rms(c)
DAV:   1    -0.220672980743E+01   -0.22067E+01   -0.19786E+03   928   0.420E+02
DAV:   2    -0.115016104673E+02   -0.92949E+01   -0.87294E+01  1432   0.534E+01
DAV:   3    -0.116206250676E+02   -0.11901E+00   -0.11901E+00  1160   0.737E+00
DAV:   4    -0.116211085370E+02   -0.48347E-03   -0.48347E-03  1392   0.482E-01
DAV:   5    -0.116211092006E+02   -0.66362E-06   -0.66361E-06  1184   0.124E-02    0.256E+00
DAV:   6    -0.115195200429E+02    0.10159E+00   -0.51772E-02  1056   0.111E+00    0.152E+00
DAV:   7    -0.114649260220E+02    0.54594E-01   -0.10966E-01  1072   0.166E+00    0.113E-01
DAV:   8    -0.114651909802E+02   -0.26496E-03   -0.30323E-03   952   0.388E-01    0.246E-02
DAV:   9    -0.114651743336E+02    0.16647E-04   -0.99430E-05   848   0.638E-02
   1 F= -.11465174E+02 E0= -.11465174E+02  d E =-.217035E-09
 writing wavefunctions
a= 6.0
 running on    1 total cores
 distrk:  each k-point on    1 cores,    1 groups
 distr:  one band on    1 cores,    1 groups
 using from now: INCAR     
 vasp.5.3.5 31Mar14 (build Feb  5 2015 19:39:53) complex                        
  
 POSCAR found type information on POSCAR  Si
 POSCAR found :  1 types and       2 ions
 scaLAPACK will be used
 LDA part: xc-table for Ceperly-Alder, standard interpolation
 POSCAR, INCAR and KPOINTS ok, starting setup
 WARNING: small aliasing (wrap around) errors must be expected
 FFT: planning ...
 WAVECAR not read
 entering main loop
       N       E                     dE             d eps       ncg     rms          rms(c)
DAV:   1    -0.188919155446E+01   -0.18892E+01   -0.20050E+03   904   0.419E+02
DAV:   2    -0.112782130015E+02   -0.93890E+01   -0.89321E+01  1520   0.530E+01
DAV:   3    -0.113926475082E+02   -0.11443E+00   -0.11443E+00  1136   0.726E+00
DAV:   4    -0.113930720327E+02   -0.42452E-03   -0.42452E-03  1416   0.461E-01
DAV:   5    -0.113930731497E+02   -0.11170E-05   -0.11175E-05  1176   0.150E-02    0.244E+00
DAV:   6    -0.113057827124E+02    0.87290E-01   -0.40026E-02  1064   0.974E-01    0.146E+00
DAV:   7    -0.112567300539E+02    0.49053E-01   -0.90561E-02  1072   0.151E+00    0.102E-01
DAV:   8    -0.112570364852E+02   -0.30643E-03   -0.24579E-03   936   0.348E-01    0.235E-02
DAV:   9    -0.112570240059E+02    0.12479E-04   -0.81664E-05   792   0.588E-02
   1 F= -.11257024E+02 E0= -.11257024E+02  d E =-.463291E-07
 writing wavefunctions
4.5 1 F= -.53589318E+01 E0= -.53579273E+01 d E =-.200904E-02
4.6 1 F= -.68983045E+01 E0= -.68972675E+01 d E =-.207408E-02
4.7 1 F= -.81664244E+01 E0= -.81653568E+01 d E =-.213516E-02
4.8 1 F= -.91957087E+01 E0= -.91949024E+01 d E =-.161252E-02
4.9 1 F= -.10016753E+02 E0= -.10015858E+02 d E =-.178976E-02
5.0 1 F= -.10658867E+02 E0= -.10658242E+02 d E =-.124816E-02
5.1 1 F= -.11142312E+02 E0= -.11141985E+02 d E =-.653108E-03
5.2 1 F= -.11489162E+02 E0= -.11489002E+02 d E =-.320310E-03
5.3 1 F= -.11718283E+02 E0= -.11718238E+02 d E =-.894876E-04
5.4 1 F= -.11846646E+02 E0= -.11846639E+02 d E =-.146905E-04
5.5 1 F= -.11890393E+02 E0= -.11890392E+02 d E =-.166097E-05
5.6 1 F= -.11862925E+02 E0= -.11862925E+02 d E =-.140247E-06
5.7 1 F= -.11776640E+02 E0= -.11776640E+02 d E =-.129511E-07
5.8 1 F= -.11640858E+02 E0= -.11640858E+02 d E =-.118027E-08
5.9 1 F= -.11465174E+02 E0= -.11465174E+02 d E =-.217035E-09
6.0 1 F= -.11257024E+02 E0= -.11257024E+02 d E =-.463291E-07
