diamond Si                              
   4.70000000000000     
     0.000000    0.490819    0.490819
     0.490819    0.000000    0.490819
     0.490819    0.490819    0.000000
   Si
     2
Direct
  0.875000  0.875000  0.875000
  0.125000  0.125000  0.125000
 
   24   24   24
 0.21117662814E+02 0.20712010165E+02 0.19318638914E+02 0.16902885938E+02 0.13965369414E+02
 0.11502903904E+02 0.10537106808E+02 0.11502471976E+02 0.13965173323E+02 0.16903150729E+02
 0.19318650229E+02 0.20711076399E+02 0.21116186261E+02 0.20711076399E+02 0.19318650229E+02
 0.16903150729E+02 0.13965173323E+02 0.11502471976E+02 0.10537106808E+02 0.11502903904E+02
 0.13965369414E+02 0.16902885938E+02 0.19318638914E+02 0.20712010165E+02 0.20712010165E+02
 0.19851115433E+02 0.17569340524E+02 0.14143044449E+02 0.10593367995E+02 0.83144104188E+01
 0.83143714124E+01 0.10593505204E+02 0.14143571269E+02 0.17569787706E+02 0.19850823385E+02
 0.20711032202E+02 0.20463577305E+02 0.19492616227E+02 0.17831444075E+02 0.15647145983E+02
 0.13490458030E+02 0.12130099923E+02 0.12130313120E+02 0.13490958485E+02 0.15647656214E+02
 0.17831883353E+02 0.19493244936E+02 0.20464579046E+02 0.19318638914E+02 0.17569340524E+02
 0.14181248743E+02 0.99510639327E+01 0.63854791135E+01 0.49863514970E+01 0.63846686763E+01
 0.99504947831E+01 0.14181687491E+02 0.17570286687E+02 0.19318922048E+02 0.19492404929E+02
 0.18668643720E+02 0.17334813327E+02 0.15672550877E+02 0.13936854610E+02 0.12578926113E+02
 0.12060631162E+02 0.12578911030E+02 0.13936805088E+02 0.15672741794E+02 0.17335641064E+02
 0.18669927548E+02 0.19493244936E+02 0.16902885938E+02 0.14143044449E+02 0.99510639327E+01
 0.56243729682E+01 0.28595328360E+01 0.28586028585E+01 0.56226775976E+01 0.99505872756E+01
 0.14144283175E+02 0.16904269853E+02 0.17831769525E+02 0.17334325992E+02 0.16139948041E+02
 0.14683424390E+02 0.13204495238E+02 0.11959030917E+02 0.11233734930E+02 0.11233910374E+02
 0.11959107445E+02 0.13204080983E+02 0.14683250458E+02 0.16140856768E+02 0.17335641064E+02
 0.17831883353E+02 0.13965369414E+02 0.10593367995E+02 0.63854791135E+01 0.28595328360E+01
 0.14818453118E+01 0.28593872198E+01 0.63854971596E+01 0.10593794712E+02 0.13966061396E+02
 0.15648169651E+02 0.15672736786E+02 0.14682788243E+02 0.13350658535E+02 0.11978275553E+02
 0.10781314060E+02 0.99583928685E+01 0.96640874137E+01 0.99582757130E+01 0.10781294100E+02
 0.11978561664E+02 0.13351203164E+02 0.14683250458E+02 0.15672741794E+02 0.15647656214E+02
 0.11502903904E+02 0.83144104188E+01 0.49863514970E+01 0.28586028585E+01 0.28593872198E+01
 0.49879034098E+01 0.83153330984E+01 0.11502901800E+02 0.13490967009E+02 0.13937407695E+02
 0.13204527328E+02 0.11977923045E+02 0.10678046662E+02 0.95088978473E+01 0.86287187875E+01
 0.81553667217E+01 0.81548565996E+01 0.86280498814E+01 0.95093210407E+01 0.10679276753E+02
 0.11978561664E+02 0.13204080983E+02 0.13936805088E+02 0.13490958485E+02 0.10537106808E+02
 0.83143714124E+01 0.63846686763E+01 0.56226775976E+01 0.63854971596E+01 0.83153330984E+01
 0.10537618484E+02 0.12130416780E+02 0.12578939316E+02 0.11959167090E+02 0.10781272048E+02
 0.95091930140E+01 0.83414060743E+01 0.74147767845E+01 0.68228967508E+01 0.66197402315E+01
 0.68228500135E+01 0.74147782059E+01 0.83415130775E+01 0.95093210407E+01 0.10781294100E+02
 0.11959107445E+02 0.12578911030E+02 0.12130313120E+02 0.11502471976E+02 0.10593505204E+02
 0.99504947831E+01 0.99505872756E+01 0.10593794712E+02 0.11502901800E+02 0.12130416780E+02
 0.12060542586E+02 0.11233526579E+02 0.99581958366E+01 0.86286549304E+01 0.74155516043E+01
 0.64271547242E+01 0.57362388602E+01 0.53829874512E+01 0.53834224870E+01 0.57369185700E+01
 0.64270997555E+01 0.74147782059E+01 0.86280498814E+01 0.99582757130E+01 0.11233910374E+02
 0.12060631162E+02 0.12130099923E+02 0.13965173323E+02 0.14143571269E+02 0.14181687491E+02
 0.14144283175E+02 0.13966061396E+02 0.13490967009E+02 0.12578939316E+02 0.11233526579E+02
 0.96639379129E+01 0.81548169193E+01 0.68228374177E+01 0.57368962225E+01 0.49430612787E+01
 0.44630629675E+01 0.43028781363E+01 0.44630510367E+01 0.49430676120E+01 0.57369185700E+01
 0.68228500135E+01 0.81548565996E+01 0.96640874137E+01 0.11233734930E+02 0.12578926113E+02
 0.13490458030E+02 0.16903150729E+02 0.17569787706E+02 0.17570286687E+02 0.16904269853E+02
 0.15648169651E+02 0.13937407695E+02 0.11959167090E+02 0.99581958366E+01 0.81548169193E+01
 0.66190068635E+01 0.53829669199E+01 0.44632040957E+01 0.38596769266E+01 0.35622434789E+01
 0.35619591154E+01 0.38591511488E+01 0.44630510367E+01 0.53834224870E+01 0.66197402315E+01
 0.81553667217E+01 0.99583928685E+01 0.11959030917E+02 0.13936854610E+02 0.15647145983E+02
 0.19318650229E+02 0.19850823385E+02 0.19318922048E+02 0.17831769525E+02 0.15672736786E+02
 0.13204527328E+02 0.10781272048E+02 0.86286549304E+01 0.68228374177E+01 0.53829669199E+01
 0.43029093279E+01 0.35620104725E+01 0.31330283175E+01 0.29929983666E+01 0.31329954085E+01
 0.35619591154E+01 0.43028781363E+01 0.53829874512E+01 0.68228967508E+01 0.86287187875E+01
 0.10781314060E+02 0.13204495238E+02 0.15672550877E+02 0.17831444075E+02 0.20711076399E+02
 0.20711032202E+02 0.19492404929E+02 0.17334325992E+02 0.14682788243E+02 0.11977923045E+02
 0.95091930140E+01 0.74155516043E+01 0.57368962225E+01 0.44632040957E+01 0.35620104725E+01
 0.29927511248E+01 0.27188969643E+01 0.27189843747E+01 0.29929983666E+01 0.35622434789E+01
 0.44630629675E+01 0.57362388602E+01 0.74147767845E+01 0.95088978473E+01 0.11978275553E+02
 0.14683424390E+02 0.17334813327E+02 0.19492616227E+02 0.21116186261E+02 0.20463577305E+02
 0.18668643720E+02 0.16139948041E+02 0.13350658535E+02 0.10678046662E+02 0.83414060743E+01
 0.64271547242E+01 0.49430612787E+01 0.38596769266E+01 0.31330283175E+01 0.27188969643E+01
 0.25848191353E+01 0.27188969643E+01 0.31330283175E+01 0.38596769266E+01 0.49430612787E+01
 0.64271547242E+01 0.83414060743E+01 0.10678046662E+02 0.13350658535E+02 0.16139948041E+02
 0.18668643720E+02 0.20463577305E+02 0.20711076399E+02 0.19492616227E+02 0.17334813327E+02
 0.14683424390E+02 0.11978275553E+02 0.95088978473E+01 0.74147767845E+01 0.57362388602E+01
 0.44630629675E+01 0.35622434789E+01 0.29929983666E+01 0.27189843747E+01 0.27188969643E+01
 0.29927511248E+01 0.35620104725E+01 0.44632040957E+01 0.57368962225E+01 0.74155516043E+01
 0.95091930140E+01 0.11977923045E+02 0.14682788243E+02 0.17334325992E+02 0.19492404929E+02
 0.20711032202E+02 0.19318650229E+02 0.17831444075E+02 0.15672550877E+02 0.13204495238E+02
 0.10781314060E+02 0.86287187875E+01 0.68228967508E+01 0.53829874512E+01 0.43028781363E+01
 0.35619591154E+01 0.31329954085E+01 0.29929983666E+01 0.31330283175E+01 0.35620104725E+01
 0.43029093279E+01 0.53829669199E+01 0.68228374177E+01 0.86286549304E+01 0.10781272048E+02
 0.13204527328E+02 0.15672736786E+02 0.17831769525E+02 0.19318922048E+02 0.19850823385E+02
 0.16903150729E+02 0.15647145983E+02 0.13936854610E+02 0.11959030917E+02 0.99583928685E+01
 0.81553667217E+01 0.66197402315E+01 0.53834224870E+01 0.44630510367E+01 0.38591511488E+01
 0.35619591154E+01 0.35622434789E+01 0.38596769266E+01 0.44632040957E+01 0.53829669199E+01
 0.66190068635E+01 0.81548169193E+01 0.99581958366E+01 0.11959167090E+02 0.13937407695E+02
 0.15648169651E+02 0.16904269853E+02 0.17570286687E+02 0.17569787706E+02 0.13965173323E+02
 0.13490458030E+02 0.12578926113E+02 0.11233734930E+02 0.96640874137E+01 0.81548565996E+01
 0.68228500135E+01 0.57369185700E+01 0.49430676120E+01 0.44630510367E+01 0.43028781363E+01
 0.44630629675E+01 0.49430612787E+01 0.57368962225E+01 0.68228374177E+01 0.81548169193E+01
 0.96639379129E+01 0.11233526579E+02 0.12578939316E+02 0.13490967009E+02 0.13966061396E+02
 0.14144283175E+02 0.14181687491E+02 0.14143571269E+02 0.11502471976E+02 0.12130099923E+02
 0.12060631162E+02 0.11233910374E+02 0.99582757130E+01 0.86280498814E+01 0.74147782059E+01
 0.64270997555E+01 0.57369185700E+01 0.53834224870E+01 0.53829874512E+01 0.57362388602E+01
 0.64271547242E+01 0.74155516043E+01 0.86286549304E+01 0.99581958366E+01 0.11233526579E+02
 0.12060542586E+02 0.12130416780E+02 0.11502901800E+02 0.10593794712E+02 0.99505872756E+01
 0.99504947831E+01 0.10593505204E+02 0.10537106808E+02 0.12130313120E+02 0.12578911030E+02
 0.11959107445E+02 0.10781294100E+02 0.95093210407E+01 0.83415130775E+01 0.74147782059E+01
 0.68228500135E+01 0.66197402315E+01 0.68228967508E+01 0.74147767845E+01 0.83414060743E+01
 0.95091930140E+01 0.10781272048E+02 0.11959167090E+02 0.12578939316E+02 0.12130416780E+02
 0.10537618484E+02 0.83153330984E+01 0.63854971596E+01 0.56226775976E+01 0.63846686763E+01
 0.83143714124E+01 0.11502903904E+02 0.13490958485E+02 0.13936805088E+02 0.13204080983E+02
 0.11978561664E+02 0.10679276753E+02 0.95093210407E+01 0.86280498814E+01 0.81548565996E+01
 0.81553667217E+01 0.86287187875E+01 0.95088978473E+01 0.10678046662E+02 0.11977923045E+02
 0.13204527328E+02 0.13937407695E+02 0.13490967009E+02 0.11502901800E+02 0.83153330984E+01
 0.49879034098E+01 0.28593872198E+01 0.28586028585E+01 0.49863514970E+01 0.83144104188E+01
 0.13965369414E+02 0.15647656214E+02 0.15672741794E+02 0.14683250458E+02 0.13351203164E+02
 0.11978561664E+02 0.10781294100E+02 0.99582757130E+01 0.96640874137E+01 0.99583928685E+01
 0.10781314060E+02 0.11978275553E+02 0.13350658535E+02 0.14682788243E+02 0.15672736786E+02
 0.15648169651E+02 0.13966061396E+02 0.10593794712E+02 0.63854971596E+01 0.28593872198E+01
 0.14818453118E+01 0.28595328360E+01 0.63854791135E+01 0.10593367995E+02 0.16902885938E+02
 0.17831883353E+02 0.17335641064E+02 0.16140856768E+02 0.14683250458E+02 0.13204080983E+02
 0.11959107445E+02 0.11233910374E+02 0.11233734930E+02 0.11959030917E+02 0.13204495238E+02
 0.14683424390E+02 0.16139948041E+02 0.17334325992E+02 0.17831769525E+02 0.16904269853E+02
 0.14144283175E+02 0.99505872756E+01 0.56226775976E+01 0.28586028585E+01 0.28595328360E+01
 0.56243729682E+01 0.99510639327E+01 0.14143044449E+02 0.19318638914E+02 0.19493244936E+02
 0.18669927548E+02 0.17335641064E+02 0.15672741794E+02 0.13936805088E+02 0.12578911030E+02
 0.12060631162E+02 0.12578926113E+02 0.13936854610E+02 0.15672550877E+02 0.17334813327E+02
 0.18668643720E+02 0.19492404929E+02 0.19318922048E+02 0.17570286687E+02 0.14181687491E+02
 0.99504947831E+01 0.63846686763E+01 0.49863514970E+01 0.63854791135E+01 0.99510639327E+01
 0.14181248743E+02 0.17569340524E+02 0.20712010165E+02 0.20464579046E+02 0.19493244936E+02
 0.17831883353E+02 0.15647656214E+02 0.13490958485E+02 0.12130313120E+02 0.12130099923E+02
 0.13490458030E+02 0.15647145983E+02 0.17831444075E+02 0.19492616227E+02 0.20463577305E+02
 0.20711032202E+02 0.19850823385E+02 0.17569787706E+02 0.14143571269E+02 0.10593505204E+02
 0.83143714124E+01 0.83144104188E+01 0.10593367995E+02 0.14143044449E+02 0.17569340524E+02
 0.19851115433E+02 0.20710898252E+02 0.19852026065E+02 0.17571104131E+02 0.14144030128E+02
 0.10593311782E+02 0.83144406991E+01 0.83152650859E+01 0.10594634702E+02 0.14143925238E+02
 0.17569368851E+02 0.19850382649E+02 0.20710877634E+02 0.20463459508E+02 0.19492570156E+02
 0.17831847109E+02 0.15647859628E+02 0.13490720432E+02 0.12129597358E+02 0.12129747942E+02
 0.13491071633E+02 0.15648032589E+02 0.17831281225E+02 0.19491149400E+02 0.20462086040E+02
 0.19852026065E+02 0.17940148345E+02 0.14291239265E+02 0.97607404640E+01 0.59526952249E+01
 0.44611264194E+01 0.59538818972E+01 0.97616685598E+01 0.14290577962E+02 0.17938173254E+02
 0.19850416759E+02 0.20083567286E+02 0.19241510694E+02 0.17857510258E+02 0.16118377189E+02
 0.14293100176E+02 0.12861294385E+02 0.12314513984E+02 0.12862290941E+02 0.14294152232E+02
 0.16118348315E+02 0.17856174277E+02 0.19240011811E+02 0.20083456439E+02 0.17571104131E+02
 0.14291239265E+02 0.94193839719E+01 0.44377432848E+01 0.12682166910E+01 0.12680604471E+01
 0.44374157452E+01 0.94189879154E+01 0.14290498479E+02 0.17569808259E+02 0.18779916264E+02
 0.18348942227E+02 0.17089700751E+02 0.15534429395E+02 0.13941954430E+02 0.12586878219E+02
 0.11793314103E+02 0.11793927254E+02 0.12587865764E+02 0.13941892652E+02 0.15533193552E+02
 0.17088618971E+02 0.18349163265E+02 0.18781199259E+02 0.14144030128E+02 0.97607404640E+01
 0.44377432848E+01 0.29415227810E-01 -.16855038755E+01 0.27958063590E-01 0.44359220271E+01
 0.97596237417E+01 0.14143631875E+02 0.16514945691E+02 0.16855955230E+02 0.15888545330E+02
 0.14455316727E+02 0.12958258419E+02 0.11641721879E+02 0.10731705393E+02 0.10405461635E+02
 0.10732053014E+02 0.11641569995E+02 0.12957400458E+02 0.14454652773E+02 0.15888764230E+02
 0.16856615418E+02 0.16515363158E+02 0.10593311782E+02 0.59526952249E+01 0.12682166910E+01
 -.16855038755E+01 -.16861308626E+01 0.12666346382E+01 0.59509424969E+01 0.10592229304E+02
 0.13753791686E+02 0.14906888876E+02 0.14429608694E+02 0.13169640830E+02 0.11763137246E+02
 0.10474416867E+02 0.94936458000E+01 0.89631829611E+01 0.89630060198E+01 0.94933178625E+01
 0.10474321022E+02 0.11763380101E+02 0.13169882025E+02 0.14429475732E+02 0.14906550962E+02
 0.13753925042E+02 0.83144406991E+01 0.44611264194E+01 0.12680604471E+01 0.27958063590E-01
 0.12666346382E+01 0.44594909891E+01 0.83136453053E+01 0.11437008193E+02 0.12984973938E+02
 0.12931158564E+02 0.11882917859E+02 0.10564182237E+02 0.93041820726E+01 0.82829449957E+01
 0.76228893692E+01 0.73951375201E+01 0.76229755615E+01 0.82831122047E+01 0.93043772926E+01
 0.10564349781E+02 0.11883027609E+02 0.12931128663E+02 0.12984775185E+02 0.11436995860E+02
 0.83152650859E+01 0.59538818972E+01 0.44374157452E+01 0.44359220271E+01 0.59509424969E+01
 0.83136453053E+01 0.10529274941E+02 0.11774569910E+02 0.11768136233E+02 0.10818168776E+02
 0.95339546025E+01 0.82813480492E+01 0.72227013394E+01 0.64672847480E+01 0.60770448699E+01
 0.60774872813E+01 0.64679079409E+01 0.72225339784E+01 0.82807271964E+01 0.95339568543E+01
 0.10818763616E+02 0.11768095343E+02 0.11773514405E+02 0.10528754302E+02 0.10594634702E+02
 0.97616685598E+01 0.94189879154E+01 0.97596237417E+01 0.10592229304E+02 0.11437008193E+02
 0.11774569910E+02 0.11326546167E+02 0.10206521302E+02 0.88322629094E+01 0.75226046470E+01
 0.64033968375E+01 0.55606559598E+01 0.50424992482E+01 0.48684678227E+01 0.50427202766E+01
 0.55606311056E+01 0.64031018336E+01 0.75225250815E+01 0.88323985645E+01 0.10206172631E+02
 0.11325518980E+02 0.11773933895E+02 0.11438005550E+02 0.14143925238E+02 0.14290577962E+02
 0.14290498479E+02 0.14143631875E+02 0.13753791686E+02 0.12984973938E+02 0.11768136233E+02
 0.10206521302E+02 0.85832954758E+01 0.71187472419E+01 0.58868076186E+01 0.49401691312E+01
 0.43060797069E+01 0.39901643598E+01 0.39899758364E+01 0.43057957976E+01 0.49402323185E+01
 0.58871798258E+01 0.71189334046E+01 0.85830051674E+01 0.10206062698E+02 0.11768027014E+02
 0.12985326876E+02 0.13754271957E+02 0.17569368851E+02 0.17938173254E+02 0.17569808259E+02
 0.16514945691E+02 0.14906888876E+02 0.12931158564E+02 0.10818168776E+02 0.88322629094E+01
 0.71187472419E+01 0.57109136027E+01 0.46262575043E+01 0.38673967715E+01 0.34228301864E+01
 0.32769760336E+01 0.34227944010E+01 0.38673474364E+01 0.46262383198E+01 0.57110293561E+01
 0.71191160027E+01 0.88328024298E+01 0.10818510306E+02 0.12930958404E+02 0.14906211813E+02
 0.16514203926E+02 0.19850382649E+02 0.19850416759E+02 0.18779916264E+02 0.16855955230E+02
 0.14429608694E+02 0.11882917859E+02 0.95339546025E+01 0.75226046470E+01 0.58868076186E+01
 0.46262575043E+01 0.37222552964E+01 0.31458028189E+01 0.28671257436E+01 0.28672306167E+01
 0.31459493352E+01 0.37221970962E+01 0.46260509404E+01 0.58867418350E+01 0.75227914326E+01
 0.95341734693E+01 0.11882906201E+02 0.14429368045E+02 0.16855692027E+02 0.18779774924E+02
 0.20710877634E+02 0.20083567286E+02 0.18348942227E+02 0.15888545330E+02 0.13169640830E+02
 0.10564182237E+02 0.82813480492E+01 0.64033968375E+01 0.49401691312E+01 0.38673967715E+01
 0.31458028189E+01 0.27338881871E+01 0.26004131779E+01 0.27339254291E+01 0.31459941978E+01
 0.38675893367E+01 0.49399520571E+01 0.64026861475E+01 0.82806838859E+01 0.10564170131E+02
 0.13170218791E+02 0.15889070687E+02 0.18348984647E+02 0.20083359188E+02 0.20463459508E+02
 0.19241510694E+02 0.17089700751E+02 0.14455316727E+02 0.11763137246E+02 0.93041820726E+01
 0.72227013394E+01 0.55606559598E+01 0.43060797069E+01 0.34228301864E+01 0.28671257436E+01
 0.26004131779E+01 0.26003336830E+01 0.28670187147E+01 0.34228741272E+01 0.43062082686E+01
 0.55606696517E+01 0.72225977888E+01 0.93041606829E+01 0.11763256745E+02 0.14455342956E+02
 0.17089410898E+02 0.19241046597E+02 0.20463230760E+02 0.19492570156E+02 0.17857510258E+02
 0.15534429395E+02 0.12958258419E+02 0.10474416867E+02 0.82829449957E+01 0.64672847480E+01
 0.50424992482E+01 0.39901643598E+01 0.32769760336E+01 0.28672306167E+01 0.27339254291E+01
 0.28670187147E+01 0.32766156583E+01 0.39899863678E+01 0.50429001339E+01 0.64681703061E+01
 0.82836551815E+01 0.10474378634E+02 0.12957545542E+02 0.15533569837E+02 0.17856920161E+02
 0.19492318381E+02 0.20083399781E+02 0.17831847109E+02 0.16118377189E+02 0.13941954430E+02
 0.11641721879E+02 0.94936458000E+01 0.76228893692E+01 0.60770448699E+01 0.48684678227E+01
 0.39899758364E+01 0.34227944010E+01 0.31459493352E+01 0.31459941978E+01 0.34228741272E+01
 0.39899863678E+01 0.48683872508E+01 0.60769935767E+01 0.76230069946E+01 0.94938920010E+01
 0.11641859722E+02 0.13941777607E+02 0.16117928145E+02 0.17831389440E+02 0.18779926299E+02
 0.18780116068E+02 0.15647859628E+02 0.14293100176E+02 0.12586878219E+02 0.10731705393E+02
 0.89631829611E+01 0.73951375201E+01 0.60774872813E+01 0.50427202766E+01 0.43057957976E+01
 0.38673474364E+01 0.37221970962E+01 0.38675893367E+01 0.43062082686E+01 0.50429001339E+01
 0.60769935767E+01 0.73942125707E+01 0.89627178946E+01 0.10732210163E+02 0.12587795851E+02
 0.14293443490E+02 0.15647357660E+02 0.16514048016E+02 0.16812587096E+02 0.16514702213E+02
 0.13490720432E+02 0.12861294385E+02 0.11793314103E+02 0.10405461635E+02 0.89630060198E+01
 0.76229755615E+01 0.64679079409E+01 0.55606311056E+01 0.49402323185E+01 0.46262383198E+01
 0.46260509404E+01 0.49399520571E+01 0.55606696517E+01 0.64681703061E+01 0.76230069946E+01
 0.89627178946E+01 0.10405317951E+02 0.11793639266E+02 0.12861714795E+02 0.13490628803E+02
 0.13753800518E+02 0.13820685953E+02 0.13821017148E+02 0.13754363523E+02 0.12129597358E+02
 0.12314513984E+02 0.11793927254E+02 0.10732053014E+02 0.94933178625E+01 0.82831122047E+01
 0.72225339784E+01 0.64031018336E+01 0.58871798258E+01 0.57110293561E+01 0.58867418350E+01
 0.64026861475E+01 0.72225977888E+01 0.82836551815E+01 0.94938920010E+01 0.10732210163E+02
 0.11793639266E+02 0.12314156882E+02 0.12129552509E+02 0.11437803880E+02 0.10703864775E+02
 0.10394437459E+02 0.10703558022E+02 0.11437512755E+02 0.12129747942E+02 0.12862290941E+02
 0.12587865764E+02 0.11641569995E+02 0.10474321022E+02 0.93043772926E+01 0.82807271964E+01
 0.75225250815E+01 0.71189334046E+01 0.71191160027E+01 0.75227914326E+01 0.82806838859E+01
 0.93041606829E+01 0.10474378634E+02 0.11641859722E+02 0.12587795851E+02 0.12861714795E+02
 0.12129552509E+02 0.10529257053E+02 0.86980813340E+01 0.74834807110E+01 0.74825365012E+01
 0.86962062117E+01 0.10528157908E+02 0.13491071633E+02 0.14294152232E+02 0.13941892652E+02
 0.12957400458E+02 0.11763380101E+02 0.10564349781E+02 0.95339568543E+01 0.88323985645E+01
 0.85830051674E+01 0.88328024298E+01 0.95341734693E+01 0.10564170131E+02 0.11763256745E+02
 0.12957545542E+02 0.13941777607E+02 0.14293443490E+02 0.13490628803E+02 0.11437803880E+02
 0.86980813340E+01 0.63382053258E+01 0.54053583055E+01 0.63358503768E+01 0.86953792872E+01
 0.11436656334E+02 0.15648032589E+02 0.16118348315E+02 0.15533193552E+02 0.14454652773E+02
 0.13169882025E+02 0.11883027609E+02 0.10818763616E+02 0.10206172631E+02 0.10206062698E+02
 0.10818510306E+02 0.11882906201E+02 0.13170218791E+02 0.14455342956E+02 0.15533569837E+02
 0.16117928145E+02 0.15647357660E+02 0.13753800518E+02 0.10703864775E+02 0.74834807110E+01
 0.54053583055E+01 0.54042753652E+01 0.74811203164E+01 0.10702025396E+02 0.13753492454E+02
 0.17831281225E+02 0.17856174277E+02 0.17088618971E+02 0.15888764230E+02 0.14429475732E+02
 0.12931128663E+02 0.11768095343E+02 0.11325518980E+02 0.11768027014E+02 0.12930958404E+02
 0.14429368045E+02 0.15889070687E+02 0.17089410898E+02 0.17856920161E+02 0.17831389440E+02
 0.16514048016E+02 0.13820685953E+02 0.10394437459E+02 0.74825365012E+01 0.63358503768E+01
 0.74811203164E+01 0.10393005773E+02 0.13820297097E+02 0.16514307782E+02 0.19491149400E+02
 0.19240011811E+02 0.18349163265E+02 0.16856615418E+02 0.14906550962E+02 0.12984775185E+02
 0.11773514405E+02 0.11773933895E+02 0.12985326876E+02 0.14906211813E+02 0.16855692027E+02
 0.18348984647E+02 0.19241046597E+02 0.19492318381E+02 0.18779926299E+02 0.16812587096E+02
 0.13821017148E+02 0.10703558022E+02 0.86962062117E+01 0.86953792872E+01 0.10702025396E+02
 0.13820297097E+02 0.16812724692E+02 0.18779670624E+02 0.20462086040E+02 0.20083456439E+02
 0.18781199259E+02 0.16515363158E+02 0.13753925042E+02 0.11436995860E+02 0.10528754302E+02
 0.11438005550E+02 0.13754271957E+02 0.16514203926E+02 0.18779774924E+02 0.20083359188E+02
 0.20463230760E+02 0.20083399781E+02 0.18780116068E+02 0.16514702213E+02 0.13754363523E+02
 0.11437512755E+02 0.10528157908E+02 0.11436656334E+02 0.13753492454E+02 0.16514307782E+02
 0.18779670624E+02 0.20082304677E+02 0.19316940551E+02 0.17568762986E+02 0.14181670478E+02
 0.99516465978E+01 0.63857555198E+01 0.49866877019E+01 0.63854742739E+01 0.99514424581E+01
 0.14182138739E+02 0.17570166526E+02 0.19318666591E+02 0.19492242058E+02 0.18668462799E+02
 0.17334664568E+02 0.15672721171E+02 0.13937361217E+02 0.12579377361E+02 0.12060759181E+02
 0.12578927945E+02 0.13937025214E+02 0.15673018200E+02 0.17335371545E+02 0.18668656670E+02
 0.19491266719E+02 0.17568762986E+02 0.14290518305E+02 0.94199823247E+01 0.44381272331E+01
 0.12676971110E+01 0.12675292578E+01 0.44378781898E+01 0.94201623249E+01 0.14291362084E+02
 0.17569954974E+02 0.18779726842E+02 0.18348741811E+02 0.17089454104E+02 0.15534214941E+02
 0.13942106151E+02 0.12587457644E+02 0.11793850859E+02 0.11793992654E+02 0.12587731814E+02
 0.13942275179E+02 0.15534220190E+02 0.17089287176E+02 0.18348232984E+02 0.18778744141E+02
 0.14181670478E+02 0.94199823247E+01 0.36788553273E+01 -.10607738805E+01 -.29014596919E+01
 -.10602461174E+01 0.36792753575E+01 0.94199629550E+01 0.14181674256E+02 0.16812387624E+02
 0.17276518878E+02 0.16323319808E+02 0.14852863850E+02 0.13310161355E+02 0.11950361623E+02
 0.11008484106E+02 0.10669739302E+02 0.11008156847E+02 0.11950200741E+02 0.13310340804E+02
 0.14852878223E+02 0.16322686198E+02 0.17275534467E+02 0.16811794410E+02 0.99516465978E+01
 0.44381272331E+01 -.10607738805E+01 -.45092573314E+01 -.45086299711E+01 -.10598242051E+01
 0.44380185182E+01 0.99507377155E+01 0.13820151871E+02 0.15408973251E+02 0.15103043512E+02
 0.13834197192E+02 0.12366624995E+02 0.11009695056E+02 0.99717894753E+01 0.94085797747E+01
 0.94079499211E+01 0.99707206176E+01 0.11009481823E+02 0.12367196572E+02 0.13834257252E+02
 0.15102029547E+02 0.15407977077E+02 0.13820361769E+02 0.63857555198E+01 0.12676971110E+01
 -.29014596919E+01 -.45086299711E+01 -.29004597851E+01 0.12684831215E+01 0.63854725226E+01
 0.10701992062E+02 0.13123779722E+02 0.13543975388E+02 0.12633794013E+02 0.11286106076E+02
 0.99621972922E+01 0.88746637864E+01 0.81665613339E+01 0.79213181311E+01 0.81664666404E+01
 0.88745980180E+01 0.99621406869E+01 0.11285836450E+02 0.12633280517E+02 0.13543688571E+02
 0.13124223964E+02 0.10702865139E+02 0.49866877019E+01 0.12675292578E+01 -.10602461174E+01
 -.10598242051E+01 0.12684831215E+01 0.49873924871E+01 0.86957396121E+01 0.11201518488E+02
 0.12018660481E+02 0.11443098815E+02 0.10227775167E+02 0.89511783049E+01 0.78395686003E+01
 0.70336999799E+01 0.66139083486E+01 0.66143556498E+01 0.70345125953E+01 0.78397563159E+01
 0.89504357791E+01 0.10226890861E+02 0.11443108691E+02 0.12019685348E+02 0.11202636159E+02
 0.86959888364E+01 0.63854742739E+01 0.44378781898E+01 0.36792753575E+01 0.44380185182E+01
 0.63854725226E+01 0.86957396121E+01 0.10447121397E+02 0.11060422210E+02 0.10536407682E+02
 0.93671035798E+01 0.81021264975E+01 0.69654371082E+01 0.60850244989E+01 0.55353474887E+01
 0.53493279541E+01 0.55353502520E+01 0.60850384504E+01 0.69654120595E+01 0.81019910377E+01
 0.93669186730E+01 0.10536395804E+02 0.11060738100E+02 0.10447617698E+02 0.86960722625E+01
 0.99514424581E+01 0.94201623249E+01 0.94199629550E+01 0.99507377155E+01 0.10701992062E+02
 0.11201518488E+02 0.11060422210E+02 0.10194713806E+02 0.88807441381E+01 0.75328354208E+01
 0.63310188193E+01 0.53718892679E+01 0.47146029802E+01 0.43831961143E+01 0.43828924857E+01
 0.47140538165E+01 0.53717636161E+01 0.63314604566E+01 0.75331913457E+01 0.88803667183E+01
 0.10193912310E+02 0.11060177823E+02 0.11202242186E+02 0.10703075615E+02 0.14182138739E+02
 0.14291362084E+02 0.14181674256E+02 0.13820151871E+02 0.13123779722E+02 0.12018660481E+02
 0.10536407682E+02 0.88807441381E+01 0.73323863890E+01 0.59978408760E+01 0.49304093963E+01
 0.41642133767E+01 0.37084621630E+01 0.35579226363E+01 0.37084759474E+01 0.41642239645E+01
 0.49304124206E+01 0.59978377593E+01 0.73323502182E+01 0.88806490435E+01 0.10536323654E+02
 0.12018766276E+02 0.13124201678E+02 0.13820769914E+02 0.17570166526E+02 0.17569954974E+02
 0.16812387624E+02 0.15408973251E+02 0.13543975388E+02 0.11443098815E+02 0.93671035798E+01
 0.75328354208E+01 0.59978408760E+01 0.47814346443E+01 0.38893642600E+01 0.33120562018E+01
 0.30308072390E+01 0.30309476682E+01 0.33122868303E+01 0.38893423918E+01 0.47811346714E+01
 0.59976882570E+01 0.75331783894E+01 0.93676577554E+01 0.11443278348E+02 0.13543743219E+02
 0.15408878969E+02 0.16812670103E+02 0.19318666591E+02 0.18779726842E+02 0.17276518878E+02
 0.15103043512E+02 0.12633794013E+02 0.10227775167E+02 0.81021264975E+01 0.63310188193E+01
 0.49304093963E+01 0.38893642600E+01 0.31818445301E+01 0.27754989638E+01 0.26435187718E+01
 0.27755092173E+01 0.31818462627E+01 0.38893527962E+01 0.49303943242E+01 0.63309856758E+01
 0.81020435646E+01 0.10227674322E+02 0.12633811087E+02 0.15103305253E+02 0.17276961576E+02
 0.18780078020E+02 0.19492242058E+02 0.18348741811E+02 0.16323319808E+02 0.13834197192E+02
 0.11286106076E+02 0.89511783049E+01 0.69654371082E+01 0.53718892679E+01 0.41642133767E+01
 0.33120562018E+01 0.27754989638E+01 0.25179847989E+01 0.25179598047E+01 0.27755412945E+01
 0.33122925710E+01 0.41644478720E+01 0.53717223391E+01 0.69647895814E+01 0.89505303250E+01
 0.11286040402E+02 0.13834770747E+02 0.16324061742E+02 0.18349218517E+02 0.19492383226E+02
 0.18668462799E+02 0.17089454104E+02 0.14852863850E+02 0.12366624995E+02 0.99621972922E+01
 0.78395686003E+01 0.60850244989E+01 0.47146029802E+01 0.37084621630E+01 0.30308072390E+01
 0.26435187718E+01 0.25179598047E+01 0.26435501405E+01 0.30308542982E+01 0.37084897005E+01
 0.47145911532E+01 0.60849943360E+01 0.78395364911E+01 0.99621456391E+01 0.12366574543E+02
 0.14852912500E+02 0.17089644323E+02 0.18668654491E+02 0.19241057649E+02 0.17334664568E+02
 0.15534214941E+02 0.13310161355E+02 0.11009695056E+02 0.88746637864E+01 0.70336999799E+01
 0.55353474887E+01 0.43831961143E+01 0.35579226363E+01 0.30309476682E+01 0.27755092173E+01
 0.27755412945E+01 0.30308542982E+01 0.35575507096E+01 0.43829271839E+01 0.55356993864E+01
 0.70345178929E+01 0.88751606560E+01 0.11009395654E+02 0.13309469488E+02 0.15533852205E+02
 0.17334784049E+02 0.18349076449E+02 0.18348933392E+02 0.15672721171E+02 0.13942106151E+02
 0.11950361623E+02 0.99717894753E+01 0.81665613339E+01 0.66139083486E+01 0.53493279541E+01
 0.43828924857E+01 0.37084759474E+01 0.33122868303E+01 0.31818462627E+01 0.33122925710E+01
 0.37084897005E+01 0.43829271839E+01 0.53493916514E+01 0.66139704955E+01 0.81665583446E+01
 0.99716904655E+01 0.11950221808E+02 0.13942025028E+02 0.15672737776E+02 0.16855553614E+02
 0.17276535824E+02 0.16855502604E+02 0.13937361217E+02 0.12587457644E+02 0.11008484106E+02
 0.94085797747E+01 0.79213181311E+01 0.66143556498E+01 0.55353502520E+01 0.47140538165E+01
 0.41642239645E+01 0.38893423918E+01 0.38893527962E+01 0.41644478720E+01 0.47145911532E+01
 0.55356993864E+01 0.66139704955E+01 0.79204637187E+01 0.94080871852E+01 0.11008707479E+02
 0.12587922317E+02 0.13937477207E+02 0.14905750946E+02 0.15408215535E+02 0.15408380157E+02
 0.14905992247E+02 0.12579377361E+02 0.11793850859E+02 0.10669739302E+02 0.94079499211E+01
 0.81664666404E+01 0.70345125953E+01 0.60850384504E+01 0.53717636161E+01 0.49304124206E+01
 0.47811346714E+01 0.49303943242E+01 0.53717223391E+01 0.60849943360E+01 0.70345178929E+01
 0.81665583446E+01 0.94080871852E+01 0.10669790748E+02 0.11793666486E+02 0.12578915808E+02
 0.12984822489E+02 0.13123790232E+02 0.13147650499E+02 0.13124201678E+02 0.12985406491E+02
 0.12060759181E+02 0.11793992654E+02 0.11008156847E+02 0.99707206176E+01 0.88745980180E+01
 0.78397563159E+01 0.69654120595E+01 0.63314604566E+01 0.59978377593E+01 0.59976882570E+01
 0.63309856758E+01 0.69647895814E+01 0.78395364911E+01 0.88751606560E+01 0.99716904655E+01
 0.11008707479E+02 0.11793666486E+02 0.12059762539E+02 0.11773268655E+02 0.11202045522E+02
 0.10763251855E+02 0.10763582942E+02 0.11202933885E+02 0.11774430358E+02 0.12578927945E+02
 0.12587731814E+02 0.11950200741E+02 0.11009481823E+02 0.99621406869E+01 0.89504357791E+01
 0.81019910377E+01 0.75331913457E+01 0.73323502182E+01 0.75331783894E+01 0.81020435646E+01
 0.89505303250E+01 0.99621456391E+01 0.11009395654E+02 0.11950221808E+02 0.12587922317E+02
 0.12578915808E+02 0.11773268655E+02 0.10447085696E+02 0.92196217153E+01 0.87223833766E+01
 0.92207141189E+01 0.10448406381E+02 0.11773976850E+02 0.13937025214E+02 0.13942275179E+02
 0.13310340804E+02 0.12367196572E+02 0.11285836450E+02 0.10226890861E+02 0.93669186730E+01
 0.88803667183E+01 0.88806490435E+01 0.93676577554E+01 0.10227674322E+02 0.11286040402E+02
 0.12366574543E+02 0.13309469488E+02 0.13942025028E+02 0.13937477207E+02 0.12984822489E+02
 0.11202045522E+02 0.92196217153E+01 0.79133772758E+01 0.79141094059E+01 0.92210797443E+01