       N       E                     dE             d eps       ncg     rms          rms(c)
DAV:   1    -0.119943052210E+00   -0.11994E+00   -0.22658E+03   928   0.443E+02
DAV:   2    -0.883995668605E+01   -0.87200E+01   -0.84644E+01  1360   0.613E+01
DAV:   3    -0.890031814455E+01   -0.60361E-01   -0.60347E-01  1104   0.627E+00
DAV:   4    -0.890043865601E+01   -0.12051E-03   -0.12051E-03  1448   0.267E-01
DAV:   5    -0.890043883343E+01   -0.17742E-06   -0.17784E-06  1088   0.493E-03    0.448E+00
DAV:   6    -0.835047457582E+01    0.54996E+00   -0.46045E-01   936   0.373E+00    0.235E+00
DAV:   7    -0.816705170781E+01    0.18342E+00   -0.47902E-01  1088   0.385E+00    0.270E-01
DAV:   8    -0.816659993776E+01    0.45177E-03   -0.97706E-03  1024   0.799E-01    0.641E-02
DAV:   9    -0.816642282945E+01    0.17711E-03   -0.56351E-04  1208   0.145E-01    0.115E-02
DAV:  10    -0.816642438295E+01   -0.15535E-05   -0.82159E-06   488   0.268E-02
   1 F= -.81664244E+01 E0= -.81653568E+01  d E =-.213516E-02
