LAMMPS (17 Nov 2016)
Reading data file ...
  orthogonal box = (0 0 0) to (4.03893 4.03893 4.03893)
  2 by 2 by 7 MPI processor grid
  reading atoms ...
  4 atoms
Reading potential file AlCu.eam.alloy with DATE: 2008-10-01
Neighbor list info ...
  1 neighbor list requests
  update every 1 steps, delay 10 steps, check yes
  max neighbors/atom: 2000, page size: 100000
  master list distance cutoff = 8.6825
  ghost atom cutoff = 8.6825
  binsize = 4.34125, bins = 1 1 1
WARNING: Proc sub-domain size < neighbor skin, could lead to lost atoms (../domain.cpp:936)
Setting up Verlet run ...
  Unit style    : metal
  Current step  : 0
  Time step     : 0.005
Memory usage per processor = 3.91089 Mbytes
Step PotEng Lx Ly Lz Press Pxx Pyy Pzz c_eatoms 
       0   -13.272226    4.0389295    4.0389295    4.0389295    8223.5925    9444.1443    8072.1022    7154.5309   -13.272226 
     100   -13.172551    4.0878314    4.0878314    4.0878314   -10189.948   -6817.7195   -9250.8725   -14501.252   -13.172551 
     200   -13.107032    4.0569853    4.0569853    4.0569853    13707.359    20380.414    17847.348    2894.3136   -13.107032 
     300   -13.155706    4.1001866    4.1001866    4.1001866   -12752.558   -8450.3321   -10703.623    -19103.72   -13.155706 
     400   -13.185544     4.057949     4.057949     4.057949      7439.22     10806.11    4601.6784    6909.8718   -13.185544 
     500   -13.189151    4.0891081    4.0891081    4.0891081   -11042.064   -7963.6411   -9243.3906   -15919.162   -13.189151 
     600   -13.196985    4.0463428    4.0463428    4.0463428    10262.095    12853.164    13005.778    4927.3441   -13.196985 
     700   -13.243224    4.0749022    4.0749022    4.0749022    -9725.109   -8314.3019   -10069.301   -10791.724   -13.243224 
     800   -13.168085    4.0521259    4.0521259    4.0521259    10085.183    13140.105    14442.656    2672.7888   -13.168085 
     900   -13.043959    4.0946006    4.0946006    4.0946006   -1015.4741    9305.0284    1948.5186   -14299.969   -13.043959 
    1000   -13.165994    4.0739571    4.0739571    4.0739571    1127.5102    4988.3883    2361.1629   -3967.0206   -13.165994 
    1100   -13.174853    4.0829357    4.0829357    4.0829357   -5655.6385   -782.36991   -7291.6523   -8892.8933   -13.174853 
    1200    -13.16078    4.0681502    4.0681502    4.0681502    2064.1102    7904.7181    2447.9405   -4160.3279    -13.16078 
    1300   -13.182547    4.0586922    4.0586922    4.0586922    4874.0108    8289.4063     8538.263   -2205.6367   -13.182547 
    1400   -13.237886    4.0791525    4.0791525    4.0791525   -10689.488    -8531.499   -12388.016   -11148.951   -13.237886 
    1500   -13.201201    4.0675687    4.0675687    4.0675687    2174.9186    3465.0341    4879.8392   -1820.1176   -13.201201 
    1600   -12.992287    4.1229736    4.1229736    4.1229736   -9329.6852     -1949.68    35.267754   -26074.643   -12.992287 
    1700   -13.117012    4.0324244    4.0324244    4.0324244    27213.259    33327.237    27611.831    20700.709   -13.117012 
    1800   -13.179731    4.1256307    4.1256307    4.1256307   -30137.022   -28936.654   -30638.598   -30835.814   -13.179731 
    1900   -13.199936    4.0029731    4.0029731    4.0029731    37128.667    39926.866     36442.08    35017.054   -13.199936 
    2000   -13.061195    4.1543926    4.1543926    4.1543926   -33937.713   -28487.083    -31856.84   -41469.215   -13.061195 
Loop time of 135.319 on 28 procs for 2000 steps with 4 atoms

Performance: 6.385 ns/day, 3.759 hours/ns, 14.780 timesteps/s
96.3% CPU use with 28 MPI tasks x no OpenMP threads

MPI task timing breakdown:
Section |  min time  |  avg time  |  max time  |%varavg| %total
---------------------------------------------------------------
Pair    | 21.677     | 22.001     | 22.656     |   8.2 | 16.26
Neigh   | 0          | 0          | 0          |   0.0 |  0.00
Comm    | 0.13519    | 8.479      | 22.426     | 253.9 |  6.27
Output  | 3.2925     | 3.4254     | 3.718      |   8.1 |  2.53
Modify  | 65.599     | 79.5       | 87.815     |  84.4 | 58.75
Other   |            | 21.91      |            |       | 16.19

Nlocal:    0.142857 ave 2 max 0 min
Histogram: 26 0 0 0 0 0 0 0 0 2
Nghost:    449.857 ave 450 max 448 min
Histogram: 2 0 0 0 0 0 0 0 0 26
Neighs:    12.5714 ave 206 max 0 min
Histogram: 26 0 0 0 0 0 0 1 0 1

Total # of neighbors = 352
Ave neighs/atom = 88
Neighbor list builds = 0
Dangerous builds = 0
All done!
Total wall time: 0:02:16
