ITEM: TIMESTEP
0
ITEM: NUMBER OF ATOMS
4
ITEM: BOX BOUNDS pp pp pp
0.0000000000000000e+00 4.0389295000000001e+00
0.0000000000000000e+00 4.0389295000000001e+00
0.0000000000000000e+00 4.0389295000000001e+00
ITEM: ATOMS id type xs ys zs
1 1 0 0 0
4 1 0.5 0.5 0
2 1 0 0.5 0.5
3 1 0.5 0 0.5
ITEM: TIMESTEP
50
ITEM: NUMBER OF ATOMS
4
ITEM: BOX BOUNDS pp pp pp
-1.1147086606579037e-02 4.0500765866065738e+00
-1.1147086606579037e-02 4.0500765866065738e+00
-1.1147086606579037e-02 4.0500765866065738e+00
ITEM: ATOMS id type xs ys zs
1 1 -0.0113124 0.00542791 0.00248054
4 1 0.4939 0.495102 0.00477181
2 1 0.0174545 0.506517 0.498418
3 1 0.499958 -0.00704737 0.49433
ITEM: TIMESTEP
100
ITEM: NUMBER OF ATOMS
4
ITEM: BOX BOUNDS pp pp pp
-2.4450960734091254e-02 4.0633804607340807e+00
-2.4450960734091254e-02 4.0633804607340807e+00
-2.4450960734091254e-02 4.0633804607340807e+00
ITEM: ATOMS id type xs ys zs
1 1 0.0343425 -0.0206135 0.00369639
4 1 0.495186 0.520416 -0.00238159
2 1 -0.031177 0.486399 0.499359
3 1 0.501649 0.0137987 0.499326
ITEM: TIMESTEP
150
ITEM: NUMBER OF ATOMS
4
ITEM: BOX BOUNDS pp pp pp
-1.8318509498039148e-02 4.0572480094980294e+00
-1.8318509498039148e-02 4.0572480094980294e+00
-1.8318509498039148e-02 4.0572480094980294e+00
ITEM: ATOMS id type xs ys zs
1 1 -0.026563 0.0146459 -0.00751795
4 1 0.523534 0.484625 -0.00271501
2 1 0.0248485 0.528911 0.499225
3 1 0.47818 -0.0281827 0.511008
ITEM: TIMESTEP
200
ITEM: NUMBER OF ATOMS
4
ITEM: BOX BOUNDS pp pp pp
-9.0278970425723415e-03 4.0479573970425600e+00
-9.0278970425723415e-03 4.0479573970425600e+00
-9.0278970425723415e-03 4.0479573970425600e+00
ITEM: ATOMS id type xs ys zs
1 1 0.00862722 -0.029048 -0.00550618
4 1 0.465114 0.529519 -0.00383939
2 1 -0.0128354 0.483097 0.508053
3 1 0.539094 0.0164319 0.501293
ITEM: TIMESTEP
250
ITEM: NUMBER OF ATOMS
4
ITEM: BOX BOUNDS pp pp pp
-1.8010785361357584e-02 4.0569402853613408e+00
-1.8010785361357584e-02 4.0569402853613408e+00
-1.8010785361357584e-02 4.0569402853613408e+00
ITEM: ATOMS id type xs ys zs
1 1 -0.00963625 0.0214665 0.000681904
4 1 0.546959 0.479637 -0.00870106
2 1 -0.000856042 0.52606 0.509226
3 1 0.463533 -0.0271634 0.498793
ITEM: TIMESTEP
300
ITEM: NUMBER OF ATOMS
4
ITEM: BOX BOUNDS pp pp pp
-3.0628553020656035e-02 4.0695580530206357e+00
-3.0628553020656035e-02 4.0695580530206357e+00
-3.0628553020656035e-02 4.0695580530206357e+00
ITEM: ATOMS id type xs ys zs
1 1 0.00553167 -0.0158185 -0.0183853
4 1 0.4822 0.515204 -0.00526592
2 1 -0.0170321 0.486341 0.50167
3 1 0.529301 0.0142734 0.521981
ITEM: TIMESTEP
350
ITEM: NUMBER OF ATOMS
4
ITEM: BOX BOUNDS pp pp pp
-2.4213775171445739e-02 4.0631432751714200e+00
-2.4213775171445739e-02 4.0631432751714200e+00
-2.4213775171445739e-02 4.0631432751714200e+00
ITEM: ATOMS id type xs ys zs
1 1 -0.0179906 0.00375723 -0.0169148
4 1 0.492128 0.495904 -0.0126518
2 1 0.0129258 0.498976 0.512716
3 1 0.512937 0.00136279 0.516851
ITEM: TIMESTEP
400
ITEM: NUMBER OF ATOMS
4
ITEM: BOX BOUNDS pp pp pp
-9.5097647851232203e-03 4.0484392647850962e+00
-9.5097647851232203e-03 4.0484392647850962e+00
-9.5097647851232203e-03 4.0484392647850962e+00
ITEM: ATOMS id type xs ys zs
1 1 0.0101712 0.0034766 -0.00345131
4 1 0.520033 0.498411 -0.0225317
2 1 -0.00811299 0.500544 0.527484
3 1 0.477909 -0.00243232 0.498499
ITEM: TIMESTEP
450
ITEM: NUMBER OF ATOMS
4
ITEM: BOX BOUNDS pp pp pp
-1.2085446888093543e-02 4.0510149468880652e+00
-1.2085446888093543e-02 4.0510149468880652e+00
-1.2085446888093543e-02 4.0510149468880652e+00
ITEM: ATOMS id type xs ys zs
1 1 0.00146816 -0.00764718 -0.0226151
4 1 0.478572 0.507131 -0.00283343
2 1 0.00816631 0.500117 0.500213
3 1 0.511794 0.00039876 0.525236
ITEM: TIMESTEP
500
ITEM: NUMBER OF ATOMS
4
ITEM: BOX BOUNDS pp pp pp
-2.5089300136378334e-02 4.0640188001363473e+00
-2.5089300136378334e-02 4.0640188001363473e+00
-2.5089300136378334e-02 4.0640188001363473e+00
ITEM: ATOMS id type xs ys zs
1 1 -0.0121722 0.0103359 -0.00965351
4 1 0.505667 0.487591 -0.0106075
2 1 0.0193601 0.52127 0.506638
3 1 0.487145 -0.0191971 0.513623
ITEM: TIMESTEP
550
ITEM: NUMBER OF ATOMS
4
ITEM: BOX BOUNDS pp pp pp
-2.1365434549516227e-02 4.0602949345494874e+00
-2.1365434549516227e-02 4.0602949345494874e+00
-2.1365434549516227e-02 4.0602949345494874e+00
ITEM: ATOMS id type xs ys zs
1 1 0.0325268 -0.0250721 0.00573233
4 1 0.490371 0.526031 -0.0110851
2 1 -0.0301892 0.483251 0.51314
3 1 0.507291 0.0157895 0.492213
ITEM: TIMESTEP
600
ITEM: NUMBER OF ATOMS
4
ITEM: BOX BOUNDS pp pp pp
-3.7066506072891414e-03 4.0426361506072599e+00
-3.7066506072891414e-03 4.0426361506072599e+00
-3.7066506072891414e-03 4.0426361506072599e+00
ITEM: ATOMS id type xs ys zs
1 1 -0.0261623 0.011219 -0.0068181
4 1 0.511661 0.489615 0.00343972
2 1 0.0253877 0.517788 0.498543
3 1 0.489114 -0.018622 0.504835
ITEM: TIMESTEP
650
ITEM: NUMBER OF ATOMS
4
ITEM: BOX BOUNDS pp pp pp
-1.8638375797581652e-03 4.0407933375797240e+00
-1.8638375797581652e-03 4.0407933375797240e+00
-1.8638375797581652e-03 4.0407933375797240e+00
ITEM: ATOMS id type xs ys zs
1 1 0.0154703 -0.0125861 -0.00511279
4 1 0.490431 0.511363 -0.00707568
2 1 -0.0212503 0.491411 0.504133
3 1 0.515349 0.00981194 0.508056
ITEM: TIMESTEP
700
ITEM: NUMBER OF ATOMS
4
ITEM: BOX BOUNDS pp pp pp
-1.7986352582472609e-02 4.0569158525824331e+00
-1.7986352582472609e-02 4.0569158525824331e+00
-1.7986352582472609e-02 4.0569158525824331e+00
ITEM: ATOMS id type xs ys zs
1 1 -0.00606817 0.00424888 -0.0014897
4 1 0.514742 0.496892 -0.0114213
2 1 -0.00229772 0.504532 0.513415
3 1 0.493624 -0.00567303 0.499496
ITEM: TIMESTEP
750
ITEM: NUMBER OF ATOMS
4
ITEM: BOX BOUNDS pp pp pp
-2.1396111741590840e-02 4.0603256117415523e+00
-2.1396111741590840e-02 4.0603256117415523e+00
-2.1396111741590840e-02 4.0603256117415523e+00
ITEM: ATOMS id type xs ys zs
1 1 -0.0278276 0.0061352 -0.0102856
4 1 0.506736 0.493982 0.00521147
2 1 0.0172031 0.508134 0.496299
3 1 0.503888 -0.00825058 0.508775
ITEM: TIMESTEP
800
ITEM: NUMBER OF ATOMS
4
ITEM: BOX BOUNDS pp pp pp
-6.5981910301089464e-03 4.0455276910300686e+00
-6.5981910301089464e-03 4.0455276910300686e+00
-6.5981910301089464e-03 4.0455276910300686e+00
ITEM: ATOMS id type xs ys zs
1 1 0.0227731 -0.0184111 0.00185731
4 1 0.492857 0.517059 -0.00495535
2 1 -0.0362991 0.485877 0.501623
3 1 0.520669 0.0154747 0.501475
ITEM: TIMESTEP
850
ITEM: NUMBER OF ATOMS
4
ITEM: BOX BOUNDS pp pp pp
-6.0583185199143408e-03 4.0449878185198713e+00
-6.0583185199143408e-03 4.0449878185198713e+00
-6.0583185199143408e-03 4.0449878185198713e+00
ITEM: ATOMS id type xs ys zs
1 1 -0.0293804 0.0171623 -0.00343663
4 1 0.526922 0.48442 -0.00871066
2 1 0.0184969 0.528656 0.510411
3 1 0.483962 -0.0302388 0.501736
ITEM: TIMESTEP
900
ITEM: NUMBER OF ATOMS
4
ITEM: BOX BOUNDS pp pp pp
-2.7835532710007715e-02 4.0667650327099603e+00
-2.7835532710007715e-02 4.0667650327099603e+00
-2.7835532710007715e-02 4.0667650327099603e+00
ITEM: ATOMS id type xs ys zs
1 1 0.00608487 -0.0404797 -0.0154652
4 1 0.465887 0.541198 0.00581938
2 1 -0.0111747 0.479353 0.498774
3 1 0.539203 0.019929 0.510872
ITEM: TIMESTEP
950
ITEM: NUMBER OF ATOMS
4
ITEM: BOX BOUNDS pp pp pp
-3.6308760386700722e-02 4.0752382603866515e+00
-3.6308760386700722e-02 4.0752382603866515e+00
-3.6308760386700722e-02 4.0752382603866515e+00
ITEM: ATOMS id type xs ys zs
1 1 -0.0105016 0.0162489 0.00532778
4 1 0.532434 0.482881 0.00483818
2 1 0.0202712 0.520903 0.493298
3 1 0.457796 -0.0200328 0.496536
ITEM: TIMESTEP
1000
ITEM: NUMBER OF ATOMS
4
ITEM: BOX BOUNDS pp pp pp
-1.7513789009401926e-02 4.0564432890093585e+00
-1.7513789009401926e-02 4.0564432890093585e+00
-1.7513789009401926e-02 4.0564432890093585e+00
ITEM: ATOMS id type xs ys zs
1 1 0.0397031 -0.00635476 0.0169501
4 1 0.482626 0.504161 0.00106254
2 1 -0.0172061 0.490697 0.491892
3 1 0.494877 0.0114968 0.490095
ITEM: TIMESTEP
1050
ITEM: NUMBER OF ATOMS
4
ITEM: BOX BOUNDS pp pp pp
-5.3809869593823834e-03 4.0443104869593371e+00
-5.3809869593823834e-03 4.0443104869593371e+00
-5.3809869593823834e-03 4.0443104869593371e+00
ITEM: ATOMS id type xs ys zs
1 1 -0.0217144 0.0224145 0.000374951
4 1 0.487886 0.477757 0.0108808
2 1 0.0341961 0.510731 0.490261
3 1 0.499632 -0.010903 0.498484
ITEM: TIMESTEP
1100
ITEM: NUMBER OF ATOMS
4
ITEM: BOX BOUNDS pp pp pp
-2.2003114960400971e-02 4.0609326149603522e+00
-2.2003114960400971e-02 4.0609326149603522e+00
-2.2003114960400971e-02 4.0609326149603522e+00
ITEM: ATOMS id type xs ys zs
1 1 0.0202716 -0.00685242 0.0101416
4 1 0.507173 0.508353 -0.00151139
2 1 -0.0189141 0.470977 0.506862
3 1 0.49147 0.0275226 0.484507
ITEM: TIMESTEP
1150
ITEM: NUMBER OF ATOMS
4
ITEM: BOX BOUNDS pp pp pp
-3.4386469196597602e-02 4.0733159691965461e+00
-3.4386469196597602e-02 4.0733159691965461e+00
-3.4386469196597602e-02 4.0733159691965461e+00
ITEM: ATOMS id type xs ys zs
1 1 0.00764996 0.00151975 0.00855214
4 1 0.504316 0.498604 0.0104405
2 1 -0.00992543 0.483291 0.487984
3 1 0.497959 0.0165856 0.493023
ITEM: TIMESTEP
1200
ITEM: NUMBER OF ATOMS
4
ITEM: BOX BOUNDS pp pp pp
-1.4610339692585850e-02 4.0535398396925340e+00
-1.4610339692585850e-02 4.0535398396925340e+00
-1.4610339692585850e-02 4.0535398396925340e+00
ITEM: ATOMS id type xs ys zs
1 1 -0.0299239 0.023872 0.00228018
4 1 0.506263 0.474615 0.012783
2 1 0.0210524 0.51839 0.483592
3 1 0.502609 -0.0168763 0.501344
ITEM: TIMESTEP
1250
ITEM: NUMBER OF ATOMS
4
ITEM: BOX BOUNDS pp pp pp
6.2568024209710416e-03 4.0326726975789793e+00
6.2568024209710416e-03 4.0326726975789793e+00
6.2568024209710416e-03 4.0326726975789793e+00
ITEM: ATOMS id type xs ys zs
1 1 0.0233296 -0.01374 0.0133016
4 1 0.491088 0.51454 0.00369654
2 1 -0.0247699 0.479444 0.499052
3 1 0.510352 0.0197559 0.48395
ITEM: TIMESTEP
1300
ITEM: NUMBER OF ATOMS
4
ITEM: BOX BOUNDS pp pp pp
-9.8813571040836656e-03 4.0488108571040389e+00
-9.8813571040836656e-03 4.0488108571040389e+00
-9.8813571040836656e-03 4.0488108571040389e+00
ITEM: ATOMS id type xs ys zs
1 1 -0.0184024 0.0152165 0.00407234
4 1 0.513103 0.484917 0.0110387
2 1 0.027306 0.513846 0.487955
3 1 0.477994 -0.0139795 0.496934
ITEM: TIMESTEP
1350
ITEM: NUMBER OF ATOMS
4
ITEM: BOX BOUNDS pp pp pp
-3.3310484198507684e-02 4.0722399841984593e+00
-3.3310484198507684e-02 4.0722399841984593e+00
-3.3310484198507684e-02 4.0722399841984593e+00
ITEM: ATOMS id type xs ys zs
1 1 0.0128071 -0.0145079 0.00676993
4 1 0.469766 0.513107 0.0131495
2 1 -0.00849013 0.488786 0.483857
3 1 0.525917 0.0126142 0.496223
ITEM: TIMESTEP
1400
ITEM: NUMBER OF ATOMS
4
ITEM: BOX BOUNDS pp pp pp
-2.0111522356980771e-02 4.0590410223569284e+00
-2.0111522356980771e-02 4.0590410223569284e+00
-2.0111522356980771e-02 4.0590410223569284e+00
ITEM: ATOMS id type xs ys zs
1 1 0.0127425 0.000191369 0.013675
4 1 0.505175 0.500039 -0.00191421
2 1 -0.0131627 0.507148 0.502734
3 1 0.495245 -0.00737818 0.485505
ITEM: TIMESTEP
1450
ITEM: NUMBER OF ATOMS
4
ITEM: BOX BOUNDS pp pp pp
4.4125214245185340e-03 4.0345169785754278e+00
4.4125214245185340e-03 4.0345169785754278e+00
4.4125214245185340e-03 4.0345169785754278e+00
ITEM: ATOMS id type xs ys zs
1 1 -0.0100219 -0.00657644 0.00484353
4 1 0.501615 0.506922 0.0159298
2 1 0.0139812 0.501979 0.486233
3 1 0.494426 -0.0023242 0.492993
ITEM: TIMESTEP
1500
ITEM: NUMBER OF ATOMS
4
ITEM: BOX BOUNDS pp pp pp
-1.4319605499267141e-02 4.0532491054992157e+00
-1.4319605499267141e-02 4.0532491054992157e+00
-1.4319605499267141e-02 4.0532491054992157e+00
ITEM: ATOMS id type xs ys zs
1 1 -0.0144489 0.00700335 0.0132327
4 1 0.509019 0.490176 0.0162759
2 1 0.00375626 0.503262 0.477588
3 1 0.501673 -0.000441231 0.492904
ITEM: TIMESTEP
1550
ITEM: NUMBER OF ATOMS
4
ITEM: BOX BOUNDS pp pp pp
-5.0964775625398140e-02 4.0898942756253422e+00
-5.0964775625398140e-02 4.0898942756253422e+00
-5.0964775625398140e-02 4.0898942756253422e+00
ITEM: ATOMS id type xs ys zs
1 1 0.00776443 0.0190629 0.0194756
4 1 0.526639 0.481442 -0.00898803
2 1 -0.0191758 0.506569 0.505106
3 1 0.484772 -0.0070739 0.484407
ITEM: TIMESTEP
1600
ITEM: NUMBER OF ATOMS
4
ITEM: BOX BOUNDS pp pp pp
-4.2022069295517550e-02 4.0809515692954559e+00
-4.2022069295517550e-02 4.0809515692954559e+00
-4.2022069295517550e-02 4.0809515692954559e+00
ITEM: ATOMS id type xs ys zs
1 1 0.0366443 -0.0196833 -0.00770778
4 1 0.474184 0.520686 -0.0263728
2 1 -0.0419814 0.473801 0.526741
3 1 0.531153 0.0251961 0.50734
ITEM: TIMESTEP
1650
ITEM: NUMBER OF ATOMS
4
ITEM: BOX BOUNDS pp pp pp
1.1537387036204549e-03 4.0377757612963201e+00
1.1537387036204549e-03 4.0377757612963201e+00
1.1537387036204549e-03 4.0377757612963201e+00
ITEM: ATOMS id type xs ys zs
1 1 -0.0474002 0.028336 -0.0218138
4 1 0.512905 0.471663 -0.00507698
2 1 0.039017 0.527589 0.508587
3 1 0.495478 -0.0275872 0.518304
ITEM: TIMESTEP
1700
ITEM: NUMBER OF ATOMS
4
ITEM: BOX BOUNDS pp pp pp
3.2525441325264026e-03 4.0356769558674177e+00
3.2525441325264026e-03 4.0356769558674177e+00
3.2525441325264026e-03 4.0356769558674177e+00
ITEM: ATOMS id type xs ys zs
1 1 0.0372814 -0.0242682 -0.00365592
4 1 0.496403 0.524021 -0.0151729
2 1 -0.028074 0.481289 0.511503
3 1 0.494389 0.0189588 0.507326
ITEM: TIMESTEP
1750
ITEM: NUMBER OF ATOMS
4
ITEM: BOX BOUNDS pp pp pp
-3.8459499841069000e-02 4.0773889998410180e+00
-3.8459499841069000e-02 4.0773889998410180e+00
-3.8459499841069000e-02 4.0773889998410180e+00
ITEM: ATOMS id type xs ys zs
1 1 -0.0274517 0.0199753 -0.0072757
4 1 0.509895 0.481212 -0.0134092
2 1 0.0314569 0.52514 0.513421
3 1 0.4861 -0.0263275 0.507264
ITEM: TIMESTEP
1800
ITEM: NUMBER OF ATOMS
4
ITEM: BOX BOUNDS pp pp pp
-4.3350589531743200e-02 4.0822800895316913e+00
-4.3350589531743200e-02 4.0822800895316913e+00
-4.3350589531743200e-02 4.0822800895316913e+00
ITEM: ATOMS id type xs ys zs
1 1 -0.0014087 -0.0131801 -0.00633782
4 1 0.471725 0.513239 0.000891
2 1 0.00216984 0.499518 0.501534
3 1 0.527514 0.000423287 0.503913
ITEM: TIMESTEP
1850
ITEM: NUMBER OF ATOMS
4
ITEM: BOX BOUNDS pp pp pp
3.9403999600122752e-03 4.0349891000399358e+00
3.9403999600122752e-03 4.0349891000399358e+00
3.9403999600122752e-03 4.0349891000399358e+00
ITEM: ATOMS id type xs ys zs
1 1 0.0147526 -0.00852642 -0.00184433
4 1 0.502016 0.50781 0.0062954
2 1 -0.0103544 0.501377 0.495163
3 1 0.493586 -0.000659898 0.500386
ITEM: TIMESTEP
1900
ITEM: NUMBER OF ATOMS
4
ITEM: BOX BOUNDS pp pp pp
1.7978213548889066e-02 4.0209512864510657e+00
1.7978213548889066e-02 4.0209512864510657e+00
1.7978213548889066e-02 4.0209512864510657e+00
ITEM: ATOMS id type xs ys zs
1 1 -0.00958126 -0.00766684 -0.00547811
4 1 0.491651 0.508229 -0.0133766
2 1 -0.00109282 0.495069 0.51117
3 1 0.519023 0.00436862 0.507685
ITEM: TIMESTEP
1950
ITEM: NUMBER OF ATOMS
4
ITEM: BOX BOUNDS pp pp pp
-3.3079615835042819e-02 4.0720091158349936e+00
-3.3079615835042819e-02 4.0720091158349936e+00
-3.3079615835042819e-02 4.0720091158349936e+00
ITEM: ATOMS id type xs ys zs
1 1 -0.00811642 0.0047069 -0.015045
4 1 0.506826 0.495029 -0.00601416
2 1 -0.00634813 0.505267 0.511028
3 1 0.507638 -0.0050037 0.510031
ITEM: TIMESTEP
2000
ITEM: NUMBER OF ATOMS
4
ITEM: BOX BOUNDS pp pp pp
-5.7731557826101287e-02 4.0966610578260516e+00
-5.7731557826101287e-02 4.0966610578260516e+00
-5.7731557826101287e-02 4.0966610578260516e+00
ITEM: ATOMS id type xs ys zs
1 1 -0.00850821 0.0278446 0.000992298
4 1 0.541927 0.471703 0.00431827
2 1 0.00446139 0.520571 0.498586
3 1 0.46212 -0.0201187 0.496103
