LAMMPS (17 Nov 2016)
Lattice spacing in x,y,z = 1.82574 1.82574 1.82574
Created orthogonal box = (0 0 -0.182574) to (73.0297 73.0297 0.182574)
  7 by 4 by 1 MPI processor grid
Created 3200 atoms
Neighbor list info ...
  1 neighbor list requests
  update every 1 steps, delay 0 steps, check yes
  max neighbors/atom: 2000, page size: 100000
  master list distance cutoff = 2.8
  ghost atom cutoff = 2.8
  binsize = 1.4, bins = 53 53 1
Setting up Verlet run ...
  Unit style    : lj
  Current step  : 0
  Time step     : 0.005
Memory usage per processor = 2.47677 Mbytes
Step Temp E_pair E_mol TotEng Press 
       0            1     -1.56492            0   -0.5652325   -1.5346995 
    1000    1.0205038   -1.5851365            0  -0.56495162   0.98471316 
    2000   0.99994246     -1.58217            0  -0.58254003    1.0183359 
    3000   0.99547188   -1.5809046            0  -0.58574383    1.0296078 
    4000    1.0098042   -1.5938243            0  -0.58433562   0.95736721 
    5000   0.99637516   -1.5885123            0  -0.59244852    1.0697351 
Loop time of 116.477 on 28 procs for 5000 steps with 3200 atoms

Performance: 18544.362 tau/day, 42.927 timesteps/s
96.3% CPU use with 28 MPI tasks x no OpenMP threads

MPI task timing breakdown:
Section |  min time  |  avg time  |  max time  |%varavg| %total
---------------------------------------------------------------
Pair    | 0.055739   | 0.059515   | 0.063321   |   0.8 |  0.05
Neigh   | 0.019099   | 0.020195   | 0.02159    |   0.4 |  0.02
Comm    | 34.702     | 56.081     | 91.362     | 191.8 | 48.15
Output  | 0.25291    | 0.28505    | 0.3078     |   3.1 |  0.24
Modify  | 0.035042   | 0.036572   | 0.038346   |   0.4 |  0.03
Other   |            | 60         |            |       | 51.51

Nlocal:    114.286 ave 120 max 109 min
Histogram: 3 3 3 4 2 1 5 3 1 3
Nghost:    114.857 ave 123 max 105 min
Histogram: 2 1 5 3 2 1 3 5 3 3
Neighs:    800.607 ave 907 max 738 min
Histogram: 3 5 6 4 1 4 2 2 0 1

Total # of neighbors = 22417
Ave neighs/atom = 7.00531
Neighbor list builds = 601
Dangerous builds = 0
Setting up Verlet run ...
  Unit style    : lj
  Current step  : 0
  Time step     : 0.005
Memory usage per processor = 2.85177 Mbytes
Step Temp c_msd[4] v_twopoint v_fitslope 
       0   0.99637516            0            0        5e+20 
    1000   0.98969079    4.2373395   0.21186693   0.19315354 
    2000    1.0033369     9.322971   0.23307425   0.21592088 
    3000    1.0038557     14.68838   0.24480632   0.22811992 
    4000    1.0055211    20.234366   0.25292957   0.23819463 
    5000    1.0096696    24.617312   0.24617311   0.24205404 
    6000   0.99721542    29.939374   0.24949477   0.24386728 
    7000    1.0120218    34.721787   0.24801276   0.24487541 
    8000    1.0032484     40.06855   0.25042843   0.24600539 
    9000   0.99346892    45.154001   0.25085556   0.24717918 
   10000    1.0057396    50.094706   0.25047352   0.24777692 
   11000    1.0012425    55.326249   0.25148295   0.24832337 
   12000   0.98547837    60.402132   0.25167555    0.2487133 
   13000    1.0094353      66.8763   0.25721654    0.2495815 
   14000   0.99024549    73.085473   0.26101954   0.25083329 
   15000    0.9942355    79.620232   0.26540077   0.25241429 
   16000   0.99426799    84.926523   0.26539538    0.2540059 
   17000    0.9996888    90.045887   0.26484084   0.25526665 
   18000    0.9861512    94.328272   0.26202297    0.2561782 
   19000   0.99239344    99.756381   0.26251679   0.25673588 
   20000   0.99934633    104.09143   0.26022857   0.25721913 
   21000   0.98597002    109.58364   0.26091344   0.25749328 
   22000   0.98746868    115.34645   0.26215103   0.25783067 
   23000   0.99497672    119.64042   0.26008787   0.25811816 
   24000     1.012849    125.81624   0.26211716   0.25836462 
   25000   0.99332024    132.92223   0.26584445   0.25880619 
   26000    1.0023735    138.80161   0.26692618    0.2593867 
   27000    1.0104953    145.59433   0.26961913   0.26004966 
   28000   0.97855884    152.75115   0.27276991   0.26085116 
   29000    0.9890494    159.88842   0.27566968   0.26172966 
   30000    1.0080767    166.25739   0.27709565   0.26272279 
   31000   0.99025445    173.51438   0.27986191   0.26369527 
   32000   0.99870164    180.50563   0.28204005   0.26473552 
   33000    1.0036398    187.82372   0.28458139   0.26585015 
   34000    1.0001245    194.02501   0.28533089    0.2669459 
   35000   0.99617631    199.14255   0.28448935   0.26793163 
   36000    1.0031011    205.51229   0.28543374   0.26886053 
   37000   0.99976231     211.9632   0.28643675   0.26977576 
   38000    1.0072659    218.38617   0.28735022   0.27065425 
   39000    1.0044934    224.41276   0.28770866   0.27149833 
   40000     1.001455    230.60104   0.28825129   0.27229188 
   41000    1.0082534    237.27795   0.28936336   0.27308244 
   42000    1.0034585    243.22122   0.28954906   0.27385879 
   43000   0.99689819    247.99882   0.28837072    0.2745555 
   44000   0.99995528     254.1426    0.2887984   0.27519552 
   45000   0.99634505    261.53961   0.29059956   0.27583285 
   46000   0.99890103    268.57113   0.29192514   0.27648442 
   47000    1.0008908    275.75701   0.29335852   0.27716957 
   48000    1.0015025    282.37526   0.29414089   0.27784276 
   49000    1.0009601    290.99084   0.29692942   0.27856775 
   50000   0.98416585    296.93828   0.29693828   0.27930141 
   51000   0.99180227     304.0864   0.29812392   0.27998929 
   52000    1.0088427    310.11564   0.29818812    0.2806803 
   53000    1.0006221    315.44251   0.29758727   0.28133325 
   54000   0.97931769    321.50605   0.29769079    0.2819384 
   55000    1.0028497    327.26556   0.29751415    0.2824971 
   56000    0.9907661     335.8304   0.29984857    0.2830562 
   57000    1.0063426    343.15451   0.30101273   0.28366671 
   58000    1.0165682    348.95953   0.30082718   0.28426009 
   59000    1.0187269    355.27438   0.30107998   0.28481835 
   60000   0.98919215    359.86425   0.29988688   0.28533323 
   61000   0.99536147    368.05387    0.3016835   0.28583354 
   62000   0.98929862    373.35646   0.30109392   0.28633045 
   63000   0.99299175    379.25749     0.300998   0.28677287 
   64000    0.9989254    387.26368   0.30254975   0.28723617 
   65000    1.0044954    395.11486    0.3039345   0.28773418 
   66000   0.99981215    400.84943   0.30367381   0.28821794 
   67000    0.9913623    407.57041   0.30415702    0.2886813 
   68000   0.99583339    414.96997   0.30512498   0.28913693 
   69000   0.98975038    421.55773   0.30547661   0.28960238 
   70000   0.98524794    428.62261   0.30615901   0.29006307 
   71000    1.0097963    436.93711   0.30770219   0.29053581 
   72000    1.0121365     444.4243   0.30862799   0.29101981 
   73000   0.99014149    451.90664   0.30952509   0.29151729 
   74000   0.99995045    457.70929   0.30926303   0.29200453 
   75000    1.0071871    464.27218   0.30951478   0.29246215 
   76000    1.0015989    471.69227   0.31032386   0.29290932 
   77000    1.0083723    478.51049    0.3107211   0.29336541 
   78000    1.0004018    486.50093   0.31185957   0.29382165 
   79000   0.99677224    492.68129    0.3118236   0.29428035 
   80000    1.0032119    498.61399   0.31163375   0.29472141 
   81000    1.0124275    504.70998   0.31154937   0.29513414 
   82000   0.98759944    510.97476   0.31156997   0.29552964 
   83000    1.0137686    516.03971    0.3108673   0.29590156 
   84000   0.99271389    523.42214   0.31156079   0.29626315 
   85000   0.99774272    530.59057    0.3121121   0.29662722 
   86000    1.0026519    536.53234   0.31193741   0.29698661 
   87000   0.99992525    543.15593   0.31215858   0.29733086 
   88000    1.0089581    550.00288   0.31250164   0.29767162 
   89000    1.0018278     554.4479   0.31148758   0.29799026 
   90000   0.99742438    560.29388   0.31127438    0.2982839 
   91000   0.99521255    566.58262   0.31130913   0.29856177 
   92000   0.99922477    572.76097   0.31128314   0.29883453 
   93000   0.98991616    577.82025   0.31065605   0.29910024 
   94000   0.98707576    584.37374   0.31083709    0.2993464 
   95000    1.0064394     588.2548   0.30960779   0.29957034 
   96000    1.0030972    594.05412   0.30940319   0.29976643 
   97000    1.0114314    599.88712   0.30922016   0.29995814 
   98000    1.0020768     607.7629   0.31008311   0.30015614 
   99000    1.0148315    614.69931    0.3104542   0.30036444 
  100000    1.0006288    622.77022   0.31138511   0.30057815 
Loop time of 2759.65 on 28 procs for 100000 steps with 3200 atoms

Performance: 15654.162 tau/day, 36.236 timesteps/s
96.3% CPU use with 28 MPI tasks x no OpenMP threads

MPI task timing breakdown:
Section |  min time  |  avg time  |  max time  |%varavg| %total
---------------------------------------------------------------
Pair    | 1.128      | 1.1795     | 1.2432     |   2.3 |  0.04
Neigh   | 0.40447    | 0.42314    | 0.4532     |   1.6 |  0.02
Comm    | 1125.5     | 1304.9     | 1492.8     | 315.2 | 47.29
Output  | 4.6753     | 4.7395     | 4.8546     |   1.5 |  0.17
Modify  | 221.66     | 241.51     | 260.73     |  78.6 |  8.75
Other   |            | 1207       |            |       | 43.73

Nlocal:    114.286 ave 125 max 105 min
Histogram: 2 1 3 4 5 5 2 3 1 2
Nghost:    116.357 ave 125 max 110 min
Histogram: 6 0 5 3 4 1 2 1 3 3
Neighs:    801.25 ave 934 max 683 min
Histogram: 2 4 1 5 3 5 2 3 2 1

Total # of neighbors = 22435
Ave neighs/atom = 7.01094
Neighbor list builds = 12820
Dangerous builds = 0
Total wall time: 0:47:57
