LAMMPS (17 Nov 2016)
Reading data file ...
  orthogonal box = (0 0 0) to (4.03893 4.03893 4.03893)
  2 by 2 by 7 MPI processor grid
  reading atoms ...
  4 atoms
Reading potential file AlCu.eam.alloy with DATE: 2008-10-01
WARNING: Resetting reneighboring criteria during minimization (../min.cpp:168)
Neighbor list info ...
  1 neighbor list requests
  update every 1 steps, delay 0 steps, check yes
  max neighbors/atom: 2000, page size: 100000
  master list distance cutoff = 8.6825
  ghost atom cutoff = 8.6825
  binsize = 4.34125, bins = 1 1 1
WARNING: Proc sub-domain size < neighbor skin, could lead to lost atoms (../domain.cpp:936)
Setting up cg style minimization ...
  Unit style    : metal
Memory usage per processor = 4.03581 Mbytes
Step PotEng Lx Ly Lz Press Pxx Pyy Pzz c_eatoms 
       0   -13.272226    4.0389295    4.0389295    4.0389295    6337.6544    6337.6544    6337.6544    6337.6544   -13.272226 
      10   -13.273269    4.0497635    4.0497635    4.0497635 1.5856759e-10 1.6185946e-10 1.6319852e-10 1.5064479e-10   -13.273269 
      11   -13.273269    4.0497635    4.0497635    4.0497635 1.5856759e-10 1.6185946e-10 1.6319852e-10 1.5064479e-10   -13.273269 
Loop time of 2.05475 on 28 procs for 11 steps with 4 atoms

96.3% CPU use with 28 MPI tasks x no OpenMP threads

Minimization stats:
  Stopping criterion = energy tolerance
  Energy initial, next-to-last, final = 
         -13.272226233     -13.2732688882     -13.2732688882
  Force two-norm initial, final = 0.781877 1.96677e-14
  Force max component initial, final = 0.781877 1.96676e-14
  Final line search alpha, max atom move = 1 1.96676e-14
  Iterations, force evaluations = 11 20

MPI task timing breakdown:
Section |  min time  |  avg time  |  max time  |%varavg| %total
---------------------------------------------------------------
Pair    | 0.0011971  | 0.23533    | 0.46642    |  33.9 | 11.45
Neigh   | 0          | 0          | 0          |   0.0 |  0.00
Comm    | 0.0020266  | 0.17683    | 0.56632    |  31.7 |  8.61
Output  | 0.066048   | 0.079407   | 0.088014   |   1.9 |  3.86
Modify  | 0          | 0          | 0          |   0.0 |  0.00
Other   |            | 1.563      |            |       | 76.08

Nlocal:    0.142857 ave 2 max 0 min
Histogram: 26 0 0 0 0 0 0 0 0 2
Nghost:    449.857 ave 450 max 448 min
Histogram: 2 0 0 0 0 0 0 0 0 26
Neighs:    12.5714 ave 206 max 0 min
Histogram: 26 0 0 0 0 0 0 1 0 1

Total # of neighbors = 352
Ave neighs/atom = 88
Neighbor list builds = 0
Dangerous builds = 0
System init for write_data ...
Neighbor list info ...
  1 neighbor list requests
  update every 1 steps, delay 10 steps, check yes
  max neighbors/atom: 2000, page size: 100000
  master list distance cutoff = 8.6825
  ghost atom cutoff = 8.6825
  binsize = 4.34125, bins = 1 1 1
WARNING: Proc sub-domain size < neighbor skin, could lead to lost atoms (../domain.cpp:936)
Number of atoms = 4;
Lattice constant (Angstoms) = 4.04976352616037;
All done!
Total wall time: 0:00:03
