LAMMPS data file via write_data, version 17 Nov 2016, timestep = 11

4 atoms
1 atom types

-5.4170130801850704e-03 4.0443465130801846e+00 xlo xhi
-5.4170130801850704e-03 4.0443465130801846e+00 ylo yhi
-5.4170130801850704e-03 4.0443465130801846e+00 zlo zhi

Masses

1 26.982

Atoms # atomic

4 1 2.0194647249329400e+00 2.0194647249329400e+00 4.0443464880131250e+00 0 0 -1
3 1 2.0194647249329400e+00 4.0443464880131250e+00 2.0194647249329400e+00 0 -1 0
2 1 4.0443464880131250e+00 2.0194647249329400e+00 2.0194647249329400e+00 -1 0 0
1 1 4.0443464880131250e+00 4.0443464880131250e+00 4.0443464880131250e+00 -1 -1 -1

Velocities

4 0.0000000000000000e+00 0.0000000000000000e+00 0.0000000000000000e+00
3 0.0000000000000000e+00 0.0000000000000000e+00 0.0000000000000000e+00
2 0.0000000000000000e+00 0.0000000000000000e+00 0.0000000000000000e+00
1 0.0000000000000000e+00 0.0000000000000000e+00 0.0000000000000000e+00
