LAMMPS (17 Nov 2016)
Reading data file ...
  orthogonal box = (-16.4064 -16.4064 -16.4064) to (24.4562 24.4562 24.4562)
  2 by 2 by 7 MPI processor grid
  reading atoms ...
  4000 atoms
Reading potential file AlCu.eam.alloy with DATE: 2008-10-01
Neighbor list info ...
  1 neighbor list requests
  update every 1 steps, delay 10 steps, check yes
  max neighbors/atom: 2000, page size: 100000
  master list distance cutoff = 8.6825
  ghost atom cutoff = 8.6825
  binsize = 4.34125, bins = 10 10 10
Setting up Verlet run ...
  Unit style    : metal
  Current step  : 0
  Time step     : 0.001
Memory usage per processor = 3.68056 Mbytes
Step PotEng KinEng TotEng Enthalpy Temp Volume Press 
       0    -13108.43    129.22783   -12979.202   -13007.304          250    68230.709   -659.89533 
    1000   -13128.654     133.9894   -12994.665    -13111.63    259.21158    68230.709   -2746.5453 
    2000   -13136.854    129.98298   -13006.871   -13165.407    251.46089    68230.709   -3722.6975 
    3000   -13135.127    128.16084   -13006.966   -13158.008    247.93583    68230.709   -3546.7227 
    4000   -13131.384    129.68862   -13001.695   -13133.335    250.89143    68230.709   -3091.1386 
    5000   -13134.559    128.65608   -13005.902   -13152.438    248.89391    68230.709   -3440.9035 
    6000   -13133.773    127.60265    -13006.17   -13150.947    246.85599    68230.709   -3399.6073 
    7000   -13132.847    131.19602   -13001.651   -13137.913    253.80759    68230.709   -3199.6771 
    8000   -13132.152    127.55011   -13004.602   -13142.545    246.75433    68230.709    -3239.159 
    9000    -13133.37    128.10976    -13005.26   -13146.003    247.83702    68230.709   -3304.8698 
   10000   -13130.727    129.96274   -13000.764   -13131.853    251.42174    68230.709   -3078.1909 
   11000   -13133.169    128.04109   -13005.128   -13146.682    247.70418    68230.709   -3323.9388 
   12000   -13135.785    130.03131   -13005.754   -13157.677    251.55438    68230.709   -3567.4229 
   13000   -13131.292    131.80479   -12999.487   -13130.396    254.98531    68230.709   -3073.9623 
   14000   -13133.105    128.34395   -13004.761   -13144.548    248.29007    68230.709   -3282.4516 
   15000   -13134.183    128.72842   -13005.455   -13150.729    249.03385    68230.709   -3411.2894 
   16000   -13134.136    131.16897   -13002.967    -13145.45    253.75527    68230.709   -3345.7612 
   17000    -13133.86    129.48652   -13004.373   -13148.214    250.50045    68230.709   -3377.6345 
   18000   -13133.993    126.51615   -13007.477   -13153.156    244.75408    68230.709   -3420.7899 
   19000   -13133.284    130.86336    -13002.42   -13140.964    253.16404    68230.709   -3253.2508 
   20000   -13132.748    127.96506   -13004.783   -13145.027    247.55708    68230.709    -3293.171 
   21000   -13136.296    128.65621    -13007.64   -13163.602    248.89417    68230.709   -3662.2734 
   22000   -13132.297    129.32253   -13002.975   -13139.527     250.1832    68230.709   -3206.4791 
   23000   -13132.819    128.78692   -13004.032   -13144.006    249.14703    68230.709   -3286.8311 
   24000   -13133.268    125.84201   -13007.426   -13151.498    243.44991    68230.709   -3383.0664 
   25000   -13133.347     128.7221   -13004.624   -13146.953    249.02164    68230.709   -3342.1289 
   26000   -13132.283    128.55508   -13003.728   -13139.211    248.69853    68230.709    -3181.366 
   27000   -13134.832    127.09779   -13007.734   -13157.118     245.8793    68230.709    -3507.807 
   28000   -13131.739     128.2372   -13003.502   -13137.392    248.08357    68230.709   -3143.9606 
   29000   -13133.937    130.63409   -13003.303   -13145.216     252.7205    68230.709   -3332.3511 
   30000   -13134.407    129.06644    -13005.34   -13152.918    249.68777    68230.709   -3465.3897 
   31000   -13134.113    129.69447   -13004.419   -13149.132    250.90274    68230.709   -3398.1277 
   32000   -13132.763    131.75041   -13001.013   -13138.363    254.88011    68230.709   -3225.2275 
   33000   -13136.003    129.96019   -13006.043   -13159.326    251.41679    68230.709   -3599.3568 
   34000   -13133.517     127.9991   -13005.518   -13147.009    247.62293    68230.709   -3322.4651 
   35000   -13130.343    130.44659   -12999.896   -13126.469    252.35778    68230.709   -2972.1471 
   36000   -13132.516    131.22371   -13001.292   -13136.436    253.86117    68230.709   -3173.4158 
   37000   -13134.757    128.03403   -13006.723   -13155.522    247.69051    68230.709   -3494.0527 
   38000   -13133.408    129.75979   -13003.649   -13142.902     251.0291    68230.709   -3269.9122 
   39000   -13133.296    130.77385   -13002.522   -13143.313    252.99089    68230.709   -3306.0136 
   40000   -13134.299    127.86767   -13006.432   -13152.814    247.36867    68230.709   -3437.3178 
   41000   -13134.389    130.91399   -13003.475   -13148.465      253.262    68230.709   -3404.6166 
   42000    -13134.28     130.8645   -13003.416   -13148.293    253.16626    68230.709    -3401.986 
   43000   -13136.103    128.20246   -13007.901   -13161.525    248.01634    68230.709   -3607.3761 
   44000   -13133.167    130.20543   -13002.961   -13142.342    251.89124    68230.709   -3272.9138 
   45000   -13134.129    129.72279   -13004.407    -13148.69    250.95754    68230.709   -3388.0187 
   46000   -13136.944    129.18235   -13007.762   -13165.927    249.91201    68230.709   -3713.9957 
   47000   -13135.991    127.71106    -13008.28   -13162.582    247.06571    68230.709   -3623.2848 
   48000   -13132.462    129.06988   -13003.392   -13141.743    249.69443    68230.709   -3248.7126 
   49000   -13133.356    126.66863   -13006.687   -13149.214    245.04906    68230.709   -3346.7844 
   50000   -13134.267    126.68444   -13007.583   -13154.211    245.07964    68230.709   -3443.0854 
   51000   -13132.026    128.69716   -13003.329   -13138.824    248.97338    68230.709   -3181.6581 
   52000   -13136.882    129.92169   -13006.961    -13162.97    251.34231    68230.709   -3663.3624 
   53000   -13131.561    126.87759   -13004.684   -13138.793     245.4533    68230.709   -3149.1181 
   54000   -13132.075    129.42539    -13002.65   -13137.633    250.38219    68230.709   -3169.6477 
   55000   -13136.094    129.17164   -13006.922   -13160.767    249.89131    68230.709    -3612.554 
   56000   -13134.733    129.53231   -13005.201   -13153.194    250.58903    68230.709   -3475.1508 
   57000   -13131.358    128.29279   -13003.065   -13135.143    248.19111    68230.709   -3101.4287 
   58000   -13132.376    131.66832   -13000.708   -13134.719     254.7213    68230.709   -3146.8039 
   59000   -13134.382     127.9863   -13006.396   -13152.481    247.59817    68230.709   -3430.3303 
   60000   -13133.899    130.55279   -13003.347    -13145.36    252.56323    68230.709   -3334.7141 
Loop time of 4261.65 on 28 procs for 60000 steps with 4000 atoms

Performance: 1.216 ns/day, 19.730 hours/ns, 14.079 timesteps/s
96.3% CPU use with 28 MPI tasks x no OpenMP threads

MPI task timing breakdown:
Section |  min time  |  avg time  |  max time  |%varavg| %total
---------------------------------------------------------------
Pair    | 1120.5     | 1325.7     | 1432.6     | 235.8 | 31.11
Neigh   | 0.00035    | 0.00043741 | 0.00050902 |   0.2 |  0.00
Comm    | 1568.2     | 1707.1     | 1959.8     | 236.3 | 40.06
Output  | 4.329      | 4.4165     | 4.4758     |   1.3 |  0.10
Modify  | 426.84     | 571.11     | 705.98     | 345.8 | 13.40
Other   |            | 653.3      |            |       | 15.33

Nlocal:    142.857 ave 160 max 114 min
Histogram: 2 0 3 1 2 1 5 4 7 3
Nghost:    1904.68 ave 2044 max 1829 min
Histogram: 12 1 7 0 0 0 0 0 0 8
Neighs:    11356.7 ave 12981 max 9023 min
Histogram: 2 0 3 3 3 3 1 5 4 4

Total # of neighbors = 317987
Ave neighs/atom = 79.4968
Neighbor list builds = 1
Dangerous builds = 0
All done
Total wall time: 1:11:02
