diamond Si                              
   4.80000000000000     
     0.000000    0.490819    0.490819
     0.490819    0.000000    0.490819
     0.490819    0.490819    0.000000
   Si
     2
Direct
  0.875000  0.875000  0.875000
  0.125000  0.125000  0.125000
 
   28   28   28
 0.21430508036E+02 0.21167080925E+02 0.20252486178E+02 0.18560979551E+02 0.16228895469E+02
 0.13739800674E+02 0.11806853950E+02 0.11075597405E+02 0.11806693751E+02 0.13739594293E+02
 0.16228767992E+02 0.18560971667E+02 0.20252554521E+02 0.21167167810E+02 0.21430593178E+02
 0.21167167810E+02 0.20252554521E+02 0.18560971667E+02 0.16228767992E+02 0.13739594293E+02
 0.11806693751E+02 0.11075597405E+02 0.11806853950E+02 0.13739800674E+02 0.16228895469E+02
 0.18560979551E+02 0.20252486178E+02 0.21167080925E+02 0.21167080925E+02 0.20704153113E+02
 0.19257576279E+02 0.16808719247E+02 0.13765974971E+02 0.10929540010E+02 0.92083018659E+01
 0.92081596483E+01 0.10929259330E+02 0.13765805832E+02 0.16808717204E+02 0.19257601228E+02
 0.20704126488E+02 0.21167099781E+02 0.20923742039E+02 0.20196738749E+02 0.18974292290E+02
 0.17260244029E+02 0.15278014819E+02 0.13482451096E+02 0.12404878717E+02 0.12404906706E+02
 0.13482562903E+02 0.15278208092E+02 0.17260392534E+02 0.18974255571E+02 0.20196551815E+02
 0.20923589078E+02 0.20252486178E+02 0.19257576279E+02 0.17003524515E+02 0.13725966913E+02
 0.10173952780E+02 0.74058925818E+01 0.63583214490E+01 0.74055817017E+01 0.10173567909E+02
 0.13725760188E+02 0.17003559271E+02 0.19257732727E+02 0.20252619114E+02 0.20196604984E+02
 0.19500921654E+02 0.18432621613E+02 0.17073494347E+02 0.15513935915E+02 0.13990200236E+02
 0.12854791462E+02 0.12432259606E+02 0.12854795514E+02 0.13990222175E+02 0.15513979560E+02
 0.17073544935E+02 0.18432660368E+02 0.19500929442E+02 0.20196551815E+02 0.18560979551E+02
 0.16808719247E+02 0.13725966913E+02 0.98783899934E+01 0.63030101812E+01 0.41410362848E+01
 0.41408627933E+01 0.63025970716E+01 0.98779954423E+01 0.13725831453E+02 0.16808886065E+02
 0.18561254751E+02 0.18974380498E+02 0.18432553313E+02 0.17416887483E+02 0.16169997575E+02
 0.14823243705E+02 0.13515145618E+02 0.12441204604E+02 0.11827277124E+02 0.11827279409E+02
 0.12441172742E+02 0.13515049415E+02 0.14823169027E+02 0.16170066499E+02 0.17417073157E+02
 0.18432660368E+02 0.18974255571E+02 0.16228895469E+02 0.13765974971E+02 0.10173952780E+02
 0.63030101812E+01 0.33044596790E+01 0.21736760142E+01 0.33042163880E+01 0.63027065489E+01
 0.10173781202E+02 0.13765980642E+02 0.16228986056E+02 0.17260461837E+02 0.17073558392E+02
 0.16170047329E+02 0.14991786120E+02 0.13724462318E+02 0.12503937535E+02 0.11470857171E+02
 0.10770425000E+02 0.10521064093E+02 0.10770384777E+02 0.11470807466E+02 0.12503908870E+02
 0.13724462859E+02 0.14991806134E+02 0.16170066499E+02 0.17073544935E+02 0.17260392534E+02
 0.13739800674E+02 0.10929540010E+02 0.74058925818E+01 0.41410362848E+01 0.21736760142E+01
 0.21736035093E+01 0.41408956281E+01 0.74058095402E+01 0.10929528757E+02 0.13739779583E+02
 0.15278154045E+02 0.15513974223E+02 0.14823261715E+02 0.13724569080E+02 0.12517987429E+02
 0.11346228114E+02 0.10327487620E+02 0.95693951558E+01 0.91630973934E+01 0.91630506763E+01
 0.95693278605E+01 0.10327502127E+02 0.11346291512E+02 0.12517978227E+02 0.13724462859E+02
 0.14823169027E+02 0.15513979560E+02 0.15278208092E+02 0.11806853950E+02 0.92083018659E+01
 0.63583214490E+01 0.41408627933E+01 0.33042163880E+01 0.41408956281E+01 0.63583621961E+01
 0.92083260168E+01 0.11806858505E+02 0.13482561198E+02 0.13990224881E+02 0.13515056584E+02
 0.12503917608E+02 0.11346303266E+02 0.10205997402E+02 0.91948553067E+01 0.84010489159E+01
 0.78936048204E+01 0.77189097314E+01 0.78935972115E+01 0.84010337541E+01 0.91948361259E+01
 0.10205980455E+02 0.11346291512E+02 0.12503908870E+02 0.13515049415E+02 0.13990222175E+02
 0.13482562903E+02 0.11075597405E+02 0.92081596483E+01 0.74055817017E+01 0.63025970716E+01
 0.63027065489E+01 0.74058095402E+01 0.92083260168E+01 0.11075642155E+02 0.12404905641E+02
 0.12854808367E+02 0.12441166119E+02 0.11470750070E+02 0.10327452304E+02 0.91948650959E+01
 0.81764548171E+01 0.73496296538E+01 0.67691100508E+01 0.64701749454E+01 0.64702187335E+01
 0.67691751866E+01 0.73496179114E+01 0.81763830466E+01 0.91948361259E+01 0.10327502127E+02
 0.11470807466E+02 0.12441172742E+02 0.12854795514E+02 0.12404906706E+02 0.11806693751E+02
 0.10929259330E+02 0.10173567909E+02 0.98779954423E+01 0.10173781202E+02 0.10929528757E+02
 0.11806858505E+02 0.12404905641E+02 0.12432224017E+02 0.11827255525E+02 0.10770384692E+02
 0.95693280153E+01 0.84010201020E+01 0.73495931264E+01 0.64796484120E+01 0.58347564503E+01
 0.54400636655E+01 0.53074065905E+01 0.54400857985E+01 0.58347886153E+01 0.64796793700E+01
 0.73496179114E+01 0.84010337541E+01 0.95693278605E+01 0.10770384777E+02 0.11827279409E+02
 0.12432259606E+02 0.12404878717E+02 0.13739594293E+02 0.13765805832E+02 0.13725760188E+02
 0.13725831453E+02 0.13765980642E+02 0.13739779583E+02 0.13482561198E+02 0.12854808367E+02
 0.11827255525E+02 0.10521066258E+02 0.91630749347E+01 0.78935868251E+01 0.67691021181E+01
 0.58347037966E+01 0.51207121282E+01 0.46421430780E+01 0.44030191341E+01 0.44029920591E+01
 0.46421060511E+01 0.51207362622E+01 0.58347886153E+01 0.67691751866E+01 0.78935972115E+01
 0.91630506763E+01 0.10521064093E+02 0.11827277124E+02 0.12854791462E+02 0.13482451096E+02
 0.16228767992E+02 0.16808717204E+02 0.17003559271E+02 0.16808886065E+02 0.16228986056E+02
 0.15278154045E+02 0.13990224881E+02 0.12441166119E+02 0.10770384692E+02 0.91630749347E+01
 0.77188963994E+01 0.64702086021E+01 0.54400804498E+01 0.46421030118E+01 0.40793094208E+01
 0.37466348593E+01 0.36368384837E+01 0.37466413881E+01 0.40793153422E+01 0.46421060511E+01
 0.54400857985E+01 0.64702187335E+01 0.77189097314E+01 0.91630973934E+01 0.10770425000E+02
 0.12441204604E+02 0.13990200236E+02 0.15278014819E+02 0.18560971667E+02 0.19257601228E+02
 0.19257732727E+02 0.18561254751E+02 0.17260461837E+02 0.15513974223E+02 0.13515056584E+02
 0.11470750070E+02 0.95693280153E+01 0.78935868251E+01 0.64702086021E+01 0.53074795215E+01
 0.44030533276E+01 0.37466391660E+01 0.33227760690E+01 0.31158086678E+01 0.31158400189E+01
 0.33228284736E+01 0.37466413881E+01 0.44029920591E+01 0.53074065905E+01 0.64701749454E+01
 0.78936048204E+01 0.95693951558E+01 0.11470857171E+02 0.13515145618E+02 0.15513935915E+02
 0.17260244029E+02 0.20252554521E+02 0.20704126488E+02 0.20252619114E+02 0.18974380498E+02
 0.17073558392E+02 0.14823261715E+02 0.12503917608E+02 0.10327452304E+02 0.84010201020E+01
 0.67691021181E+01 0.54400804498E+01 0.44030533276E+01 0.36368767224E+01 0.31158704396E+01
 0.28153399872E+01 0.27173476821E+01 0.28153237718E+01 0.31158400189E+01 0.36368384837E+01
 0.44030191341E+01 0.54400636655E+01 0.67691100508E+01 0.84010489159E+01 0.10327487620E+02
 0.12503937535E+02 0.14823243705E+02 0.17073494347E+02 0.18974292290E+02 0.21167167810E+02
 0.21167099781E+02 0.20196604984E+02 0.18432553313E+02 0.16170047329E+02 0.13724569080E+02
 0.11346303266E+02 0.91948650959E+01 0.73495931264E+01 0.58347037966E+01 0.46421030118E+01
 0.37466391660E+01 0.31158704396E+01 0.27174314467E+01 0.25253904634E+01 0.25253511431E+01
 0.27173476821E+01 0.31158086678E+01 0.37466348593E+01 0.46421430780E+01 0.58347564503E+01
 0.73496296538E+01 0.91948553067E+01 0.11346228114E+02 0.13724462318E+02 0.16169997575E+02
 0.18432621613E+02 0.20196738749E+02 0.21430593178E+02 0.20923742039E+02 0.19500921654E+02
 0.17416887483E+02 0.14991786120E+02 0.12517987429E+02 0.10205997402E+02 0.81764548171E+01
 0.64796484120E+01 0.51207121282E+01 0.40793094208E+01 0.33227760690E+01 0.28153399872E+01
 0.25253904634E+01 0.24313016895E+01 0.25253904634E+01 0.28153399872E+01 0.33227760690E+01
 0.40793094208E+01 0.51207121282E+01 0.64796484120E+01 0.81764548171E+01 0.10205997402E+02
 0.12517987429E+02 0.14991786120E+02 0.17416887483E+02 0.19500921654E+02 0.20923742039E+02
 0.21167167810E+02 0.20196738749E+02 0.18432621613E+02 0.16169997575E+02 0.13724462318E+02
 0.11346228114E+02 0.91948553067E+01 0.73496296538E+01 0.58347564503E+01 0.46421430780E+01
 0.37466348593E+01 0.31158086678E+01 0.27173476821E+01 0.25253511431E+01 0.25253904634E+01
 0.27174314467E+01 0.31158704396E+01 0.37466391660E+01 0.46421030118E+01 0.58347037966E+01
 0.73495931264E+01 0.91948650959E+01 0.11346303266E+02 0.13724569080E+02 0.16170047329E+02
 0.18432553313E+02 0.20196604984E+02 0.21167099781E+02 0.20252554521E+02 0.18974292290E+02
 0.17073494347E+02 0.14823243705E+02 0.12503937535E+02 0.10327487620E+02 0.84010489159E+01
 0.67691100508E+01 0.54400636655E+01 0.44030191341E+01 0.36368384837E+01 0.31158400189E+01
 0.28153237718E+01 0.27173476821E+01 0.28153399872E+01 0.31158704396E+01 0.36368767224E+01
 0.44030533276E+01 0.54400804498E+01 0.67691021181E+01 0.84010201020E+01 0.10327452304E+02
 0.12503917608E+02 0.14823261715E+02 0.17073558392E+02 0.18974380498E+02 0.20252619114E+02
 0.20704126488E+02 0.18560971667E+02 0.17260244029E+02 0.15513935915E+02 0.13515145618E+02
 0.11470857171E+02 0.95693951558E+01 0.78936048204E+01 0.64701749454E+01 0.53074065905E+01
 0.44029920591E+01 0.37466413881E+01 0.33228284736E+01 0.31158400189E+01 0.31158086678E+01
 0.33227760690E+01 0.37466391660E+01 0.44030533276E+01 0.53074795215E+01 0.64702086021E+01
 0.78935868251E+01 0.95693280153E+01 0.11470750070E+02 0.13515056584E+02 0.15513974223E+02
 0.17260461837E+02 0.18561254751E+02 0.19257732727E+02 0.19257601228E+02 0.16228767992E+02
 0.15278014819E+02 0.13990200236E+02 0.12441204604E+02 0.10770425000E+02 0.91630973934E+01
 0.77189097314E+01 0.64702187335E+01 0.54400857985E+01 0.46421060511E+01 0.40793153422E+01
 0.37466413881E+01 0.36368384837E+01 0.37466348593E+01 0.40793094208E+01 0.46421030118E+01
 0.54400804498E+01 0.64702086021E+01 0.77188963994E+01 0.91630749347E+01 0.10770384692E+02
 0.12441166119E+02 0.13990224881E+02 0.15278154045E+02 0.16228986056E+02 0.16808886065E+02
 0.17003559271E+02 0.16808717204E+02 0.13739594293E+02 0.13482451096E+02 0.12854791462E+02
 0.11827277124E+02 0.10521064093E+02 0.91630506763E+01 0.78935972115E+01 0.67691751866E+01
 0.58347886153E+01 0.51207362622E+01 0.46421060511E+01 0.44029920591E+01 0.44030191341E+01
 0.46421430780E+01 0.51207121282E+01 0.58347037966E+01 0.67691021181E+01 0.78935868251E+01
 0.91630749347E+01 0.10521066258E+02 0.11827255525E+02 0.12854808367E+02 0.13482561198E+02
 0.13739779583E+02 0.13765980642E+02 0.13725831453E+02 0.13725760188E+02 0.13765805832E+02
 0.11806693751E+02 0.12404878717E+02 0.12432259606E+02 0.11827279409E+02 0.10770384777E+02
 0.95693278605E+01 0.84010337541E+01 0.73496179114E+01 0.64796793700E+01 0.58347886153E+01
 0.54400857985E+01 0.53074065905E+01 0.54400636655E+01 0.58347564503E+01 0.64796484120E+01
 0.73495931264E+01 0.84010201020E+01 0.95693280153E+01 0.10770384692E+02 0.11827255525E+02
 0.12432224017E+02 0.12404905641E+02 0.11806858505E+02 0.10929528757E+02 0.10173781202E+02
 0.98779954423E+01 0.10173567909E+02 0.10929259330E+02 0.11075597405E+02 0.12404906706E+02
 0.12854795514E+02 0.12441172742E+02 0.11470807466E+02 0.10327502127E+02 0.91948361259E+01
 0.81763830466E+01 0.73496179114E+01 0.67691751866E+01 0.64702187335E+01 0.64701749454E+01
 0.67691100508E+01 0.73496296538E+01 0.81764548171E+01 0.91948650959E+01 0.10327452304E+02
 0.11470750070E+02 0.12441166119E+02 0.12854808367E+02 0.12404905641E+02 0.11075642155E+02
 0.92083260168E+01 0.74058095402E+01 0.63027065489E+01 0.63025970716E+01 0.74055817017E+01
 0.92081596483E+01 0.11806853950E+02 0.13482562903E+02 0.13990222175E+02 0.13515049415E+02
 0.12503908870E+02 0.11346291512E+02 0.10205980455E+02 0.91948361259E+01 0.84010337541E+01
 0.78935972115E+01 0.77189097314E+01 0.78936048204E+01 0.84010489159E+01 0.91948553067E+01
 0.10205997402E+02 0.11346303266E+02 0.12503917608E+02 0.13515056584E+02 0.13990224881E+02
 0.13482561198E+02 0.11806858505E+02 0.92083260168E+01 0.63583621961E+01 0.41408956281E+01
 0.33042163880E+01 0.41408627933E+01 0.63583214490E+01 0.92083018659E+01 0.13739800674E+02
 0.15278208092E+02 0.15513979560E+02 0.14823169027E+02 0.13724462859E+02 0.12517978227E+02
 0.11346291512E+02 0.10327502127E+02 0.95693278605E+01 0.91630506763E+01 0.91630973934E+01
 0.95693951558E+01 0.10327487620E+02 0.11346228114E+02 0.12517987429E+02 0.13724569080E+02
 0.14823261715E+02 0.15513974223E+02 0.15278154045E+02 0.13739779583E+02 0.10929528757E+02
 0.74058095402E+01 0.41408956281E+01 0.21736035093E+01 0.21736760142E+01 0.41410362848E+01
 0.74058925818E+01 0.10929540010E+02 0.16228895469E+02 0.17260392534E+02 0.17073544935E+02
 0.16170066499E+02 0.14991806134E+02 0.13724462859E+02 0.12503908870E+02 0.11470807466E+02
 0.10770384777E+02 0.10521064093E+02 0.10770425000E+02 0.11470857171E+02 0.12503937535E+02
 0.13724462318E+02 0.14991786120E+02 0.16170047329E+02 0.17073558392E+02 0.17260461837E+02
 0.16228986056E+02 0.13765980642E+02 0.10173781202E+02 0.63027065489E+01 0.33042163880E+01
 0.21736760142E+01 0.33044596790E+01 0.63030101812E+01 0.10173952780E+02 0.13765974971E+02
 0.18560979551E+02 0.18974255571E+02 0.18432660368E+02 0.17417073157E+02 0.16170066499E+02
 0.14823169027E+02 0.13515049415E+02 0.12441172742E+02 0.11827279409E+02 0.11827277124E+02
 0.12441204604E+02 0.13515145618E+02 0.14823243705E+02 0.16169997575E+02 0.17416887483E+02
 0.18432553313E+02 0.18974380498E+02 0.18561254751E+02 0.16808886065E+02 0.13725831453E+02
 0.98779954423E+01 0.63025970716E+01 0.41408627933E+01 0.41410362848E+01 0.63030101812E+01
 0.98783899934E+01 0.13725966913E+02 0.16808719247E+02 0.20252486178E+02 0.20196551815E+02
 0.19500929442E+02 0.18432660368E+02 0.17073544935E+02 0.15513979560E+02 0.13990222175E+02
 0.12854795514E+02 0.12432259606E+02 0.12854791462E+02 0.13990200236E+02 0.15513935915E+02
 0.17073494347E+02 0.18432621613E+02 0.19500921654E+02 0.20196604984E+02 0.20252619114E+02
 0.19257732727E+02 0.17003559271E+02 0.13725760188E+02 0.10173567909E+02 0.74055817017E+01
 0.63583214490E+01 0.74058925818E+01 0.10173952780E+02 0.13725966913E+02 0.17003524515E+02
 0.19257576279E+02 0.21167080925E+02 0.20923589078E+02 0.20196551815E+02 0.18974255571E+02
 0.17260392534E+02 0.15278208092E+02 0.13482562903E+02 0.12404906706E+02 0.12404878717E+02
 0.13482451096E+02 0.15278014819E+02 0.17260244029E+02 0.18974292290E+02 0.20196738749E+02
 0.20923742039E+02 0.21167099781E+02 0.20704126488E+02 0.19257601228E+02 0.16808717204E+02
 0.13765805832E+02 0.10929259330E+02 0.92081596483E+01 0.92083018659E+01 0.10929540010E+02
 0.13765974971E+02 0.16808719247E+02 0.19257576279E+02 0.20704153113E+02 0.21167096687E+02
 0.20704222594E+02 0.19257633891E+02 0.16808664000E+02 0.13765771791E+02 0.10929285992E+02
 0.92081723665E+01 0.92082576217E+01 0.10929512641E+02 0.13766031578E+02 0.16808791367E+02
 0.19257548138E+02 0.20704045975E+02 0.21167050099E+02 0.20923723804E+02 0.20196757432E+02
 0.18974370675E+02 0.17260359079E+02 0.15278071556E+02 0.13482363688E+02 0.12404672072E+02
 0.12404710884E+02 0.13482499915E+02 0.15278291268E+02 0.17260532216E+02 0.18974348746E+02
 0.20196564810E+02 0.20923568646E+02 0.20704222594E+02 0.19630790231E+02 0.17238672649E+02
 0.13779392967E+02 0.10039942438E+02 0.71295601946E+01 0.60289743998E+01 0.71299035986E+01
 0.10040382126E+02 0.13779643677E+02 0.17238631996E+02 0.19630581676E+02 0.20704057479E+02
 0.20671066563E+02 0.19959659486E+02 0.18861096621E+02 0.17455332289E+02 0.15835154574E+02
 0.14248579794E+02 0.13065056402E+02 0.12624512944E+02 0.13065300451E+02 0.14248891285E+02
 0.15835329447E+02 0.17455290361E+02 0.18860914511E+02 0.19959496271E+02 0.20671057423E+02
 0.19257633891E+02 0.17238672649E+02 0.13767497849E+02 0.94742365423E+01 0.55018032870E+01
 0.31046914932E+01 0.31048528874E+01 0.55021323586E+01 0.94744566691E+01 0.13767518308E+02
 0.17238616594E+02 0.19257611357E+02 0.19801098719E+02 0.19275561764E+02 0.18211129446E+02
 0.16897814428E+02 0.15472580131E+02 0.14076708198E+02 0.12924490978E+02 0.12263980282E+02
 0.12264101753E+02 0.12924725160E+02 0.14076831353E+02 0.15472542569E+02 0.16897749578E+02
 0.18211136341E+02 0.19275599022E+02 0.19801110708E+02 0.16808664000E+02 0.13779392967E+02
 0.94742365423E+01 0.48871626347E+01 0.13530941313E+01 0.23433663431E-01 0.13530683047E+01
 0.48871497372E+01 0.94742754720E+01 0.13779479017E+02 0.16808742764E+02 0.18191572624E+02
 0.18146029831E+02 0.17226323702E+02 0.15969415126E+02 0.14608437963E+02 0.13291853597E+02
 0.12172599683E+02 0.11408985418E+02 0.11136179891E+02 0.11409003063E+02 0.12172605801E+02
 0.13291837982E+02 0.14608434656E+02 0.15969463262E+02 0.17226411346E+02 0.18146094435E+02
 0.18191561210E+02 0.13765771791E+02 0.10039942438E+02 0.55018032870E+01 0.13530941313E+01
 -.11314107727E+01 -.11315111582E+01 0.13529102928E+01 0.55017315468E+01 0.10040007691E+02
 0.13765828102E+02 0.15969848363E+02 0.16574127353E+02 0.15992917835E+02 0.14841693060E+02
 0.13541791343E+02 0.12266711639E+02 0.11150873671E+02 0.10316615276E+02 0.98681819480E+01
 0.98681504489E+01 0.10316570104E+02 0.11150880721E+02 0.12266743509E+02 0.13541775167E+02
 0.14841641697E+02 0.15992922036E+02 0.16574205304E+02 0.15969895302E+02 0.10929285992E+02
 0.71295601946E+01 0.31046914932E+01 0.23433663431E-01 -.11315111582E+01 0.23266800327E-01
 0.31044804642E+01 0.71294314618E+01 0.10929262898E+02 0.13596665038E+02 0.14760739960E+02
 0.14598238007E+02 0.13632815356E+02 0.12410042662E+02 0.11177159584E+02 0.10069490967E+02
 0.91925832057E+01 0.86290251990E+01 0.84345067058E+01 0.86290453754E+01 0.91926104625E+01
 0.10069496526E+02 0.11177123080E+02 0.12409984025E+02 0.13632777855E+02 0.14598232498E+02
 0.14760734464E+02 0.13596647237E+02 0.92081723665E+01 0.60289743998E+01 0.31048528874E+01
 0.13530683047E+01 0.13529102928E+01 0.31044804642E+01 0.60286253076E+01 0.92080531919E+01
 0.11752965301E+02 0.13119533224E+02 0.13246211603E+02 0.12476358424E+02 0.11329576388E+02
 0.10136549726E+02 0.90368322017E+01 0.81304720881E+01 0.74881536236E+01 0.71556607118E+01
 0.71556875648E+01 0.74881859668E+01 0.81304410709E+01 0.90367634231E+01 0.10136541190E+02
 0.11329655111E+02 0.12476414578E+02 0.13246120642E+02 0.13119326755E+02 0.11752835452E+02
 0.92082576217E+01 0.71299035986E+01 0.55021323586E+01 0.48871497372E+01 0.55017315468E+01
 0.71294314618E+01 0.92080531919E+01 0.11055394165E+02 0.12134844795E+02 0.12242640146E+02
 0.11538524746E+02 0.10421562969E+02 0.92417492250E+01 0.81380273923E+01 0.72026139660E+01
 0.64987181275E+01 0.60641046446E+01 0.59174206993E+01 0.60640879439E+01 0.64986925539E+01
 0.72025959602E+01 0.81380412608E+01 0.92418103007E+01 0.10421640344E+02 0.11538527878E+02
 0.12242490179E+02 0.12134599409E+02 0.11055272583E+02 0.10929512641E+02 0.10040382126E+02
 0.94744566691E+01 0.94742754720E+01 0.10040007691E+02 0.10929262898E+02 0.11752965301E+02
 0.12134844795E+02 0.11869727987E+02 0.11005869287E+02 0.98098115060E+01 0.85812338192E+01
 0.74411536385E+01 0.64632503462E+01 0.57002062756E+01 0.51820979527E+01 0.49214232579E+01
 0.49213973742E+01 0.51820682820E+01 0.57002400874E+01 0.64633280243E+01 0.74412010613E+01
 0.85812312723E+01 0.98097949003E+01 0.11005832269E+02 0.11869618353E+02 0.12134698284E+02
 0.11752954627E+02 0.13766031578E+02 0.13779643677E+02 0.13767518308E+02 0.13779479017E+02
 0.13765828102E+02 0.13596665038E+02 0.13119533224E+02 0.12242640146E+02 0.11005869287E+02
 0.95930815086E+01 0.82289754335E+01 0.69992389536E+01 0.59504839753E+01 0.51180557198E+01
 0.45213264762E+01 0.41651909838E+01 0.40471357738E+01 0.41651914831E+01 0.45213428438E+01
 0.51180929465E+01 0.59505280725E+01 0.69992741284E+01 0.82289904441E+01 0.95930580982E+01
 0.11005793843E+02 0.12242544932E+02 0.13119504016E+02 0.13596770280E+02 0.16808791367E+02
 0.17238631996E+02 0.17238616594E+02 0.16808742764E+02 0.15969848363E+02 0.14760739960E+02
 0.13246211603E+02 0.11538524746E+02 0.98098115060E+01 0.82289754335E+01 0.68476690950E+01
 0.56882199480E+01 0.47654351951E+01 0.40841749195E+01 0.36393718822E+01 0.34208819023E+01
 0.34208989587E+01 0.36393945247E+01 0.40841635662E+01 0.47654052960E+01 0.56882236469E+01
 0.68477161298E+01 0.82290122182E+01 0.98097926728E+01 0.11538476536E+02 0.13246198726E+02
 0.14760786157E+02 0.15969917669E+02 0.19257548138E+02 0.19630581676E+02 0.19257611357E+02
 0.18191572624E+02 0.16574127353E+02 0.14598238007E+02 0.12476358424E+02 0.10421562969E+02
 0.85812338192E+01 0.69992389536E+01 0.56882199480E+01 0.46474712614E+01 0.38673320289E+01
 0.33312854412E+01 0.30201388340E+01 0.29184045422E+01 0.30201372065E+01 0.33312774815E+01
 0.38673111229E+01 0.46474352366E+01 0.56881791291E+01 0.69992177310E+01 0.85812571129E+01
 0.10421632046E+02 0.12476438548E+02 0.14598277338E+02 0.16574097445E+02 0.18191496223E+02
 0.20704045975E+02 0.20704057479E+02 0.19801098719E+02 0.18146029831E+02 0.15992917835E+02
 0.13632815356E+02 0.11329576388E+02 0.92417492250E+01 0.74411536385E+01 0.59504839753E+01
 0.47654351951E+01 0.38673320289E+01 0.32300081882E+01 0.28254471467E+01 0.26299490963E+01
 0.26299209293E+01 0.28253932468E+01 0.32299767173E+01 0.38673238710E+01 0.47654144107E+01
 0.59504445963E+01 0.74411383868E+01 0.92417901085E+01 0.11329643954E+02 0.13632849395E+02
 0.15992895908E+02 0.18145982066E+02 0.19801062972E+02 0.21167050099E+02 0.20671066563E+02
 0.19275561764E+02 0.17226323702E+02 0.14841693060E+02 0.12410042662E+02 0.10136549726E+02
 0.81380273923E+01 0.64632503462E+01 0.51180557198E+01 0.40841749195E+01 0.33312854412E+01
 0.28254471467E+01 0.25361297348E+01 0.24421917638E+01 0.25360849704E+01 0.28253827620E+01
 0.33312397753E+01 0.40841748417E+01 0.51180940784E+01 0.64632893541E+01 0.81380302178E+01
 0.10136511371E+02 0.12409992454E+02 0.14841668877E+02 0.17226342331E+02 0.19275607542E+02
 0.20671103803E+02 0.20923723804E+02 0.19959659486E+02 0.18211129446E+02 0.15969415126E+02
 0.13541791343E+02 0.11177159584E+02 0.90368322017E+01 0.72026139660E+01 0.57002062756E+01
 0.45213264762E+01 0.36393718822E+01 0.30201388340E+01 0.26299490963E+01 0.24421917638E+01
 0.24422034321E+01 0.26299644744E+01 0.30201309061E+01 0.36393495340E+01 0.45213187568E+01
 0.57002149690E+01 0.72026146094E+01 0.90368222014E+01 0.11177169554E+02 0.13541831585E+02
 0.15969439954E+02 0.18211088665E+02 0.19959575376E+02 0.20923679974E+02 0.20196757432E+02
 0.18861096621E+02 0.16897814428E+02 0.14608437963E+02 0.12266711639E+02 0.10069490967E+02
 0.81304720881E+01 0.64987181275E+01 0.51820979527E+01 0.41651909838E+01 0.34208819023E+01
 0.29184045422E+01 0.26299209293E+01 0.25360849704E+01 0.26299644744E+01 0.29184713371E+01
 0.34209324858E+01 0.41651850254E+01 0.51820296590E+01 0.64986376376E+01 0.81304588802E+01
 0.10069586075E+02 0.12266863406E+02 0.14608524318E+02 0.16897743737E+02 0.18860903454E+02
 0.20196591642E+02 0.20671133691E+02 0.18974370675E+02 0.17455332289E+02 0.15472580131E+02
 0.13291853597E+02 0.11150873671E+02 0.91925832057E+01 0.74881536236E+01 0.60641046446E+01
 0.49214232579E+01 0.40471357738E+01 0.34208989587E+01 0.30201372065E+01 0.28253932468E+01
 0.28253827620E+01 0.30201309061E+01 0.34209324858E+01 0.40471945994E+01 0.49214523380E+01
 0.60640798016E+01 0.74881163506E+01 0.91925896556E+01 0.11150925532E+02 0.13291899625E+02
 0.15472578045E+02 0.17455289301E+02 0.18974324588E+02 0.19801108585E+02 0.19801127221E+02
 0.17260359079E+02 0.15835154574E+02 0.14076708198E+02 0.12172599683E+02 0.10316615276E+02
 0.86290251990E+01 0.71556607118E+01 0.59174206993E+01 0.49213973742E+01 0.41651914831E+01
 0.36393945247E+01 0.33312774815E+01 0.32299767173E+01 0.33312397753E+01 0.36393495340E+01
 0.41651850254E+01 0.49214523380E+01 0.59175038930E+01 0.71557034636E+01 0.86289899546E+01
 0.10316534874E+02 0.12172544223E+02 0.14076719665E+02 0.15835219945E+02 0.17260434532E+02
 0.18191616600E+02 0.18515777463E+02 0.18191569668E+02 0.15278071556E+02 0.14248579794E+02
 0.12924490978E+02 0.11408985418E+02 0.98681819480E+01 0.84345067058E+01 0.71556875648E+01
 0.60640879439E+01 0.51820682820E+01 0.45213428438E+01 0.40841635662E+01 0.38673111229E+01
 0.38673238710E+01 0.40841748417E+01 0.45213187568E+01 0.51820296590E+01 0.60640798016E+01
 0.71557034636E+01 0.84344970333E+01 0.98681430473E+01 0.11408984316E+02 0.12924568771E+02
 0.14248672536E+02 0.15278081201E+02 0.15969864234E+02 0.16315158361E+02 0.16315203825E+02
 0.15969935096E+02 0.13482363688E+02 0.13065056402E+02 0.12263980282E+02 0.11136179891E+02
 0.98681504489E+01 0.86290453754E+01 0.74881859668E+01 0.64986925539E+01 0.57002400874E+01
 0.51180929465E+01 0.47654052960E+01 0.46474352366E+01 0.47654144107E+01 0.51180940784E+01
 0.57002149690E+01 0.64986376376E+01 0.74881163506E+01 0.86289899546E+01 0.98681430473E+01
 0.11136241447E+02 0.12264093423E+02 0.13065160125E+02 0.13482394297E+02 0.13596628140E+02
 0.13566228407E+02 0.13536797981E+02 0.13566287738E+02 0.13596675464E+02 0.12404672072E+02
 0.12624512944E+02 0.12264101753E+02 0.11409003063E+02 0.10316570104E+02 0.91926104625E+01
 0.81304410709E+01 0.72025959602E+01 0.64633280243E+01 0.59505280725E+01 0.56882236469E+01
 0.56881791291E+01 0.59504445963E+01 0.64632893541E+01 0.72026146094E+01 0.81304588802E+01
 0.91925896556E+01 0.10316534874E+02 0.11408984316E+02 0.12264093423E+02 0.12624516643E+02
 0.12404741897E+02 0.11752945591E+02 0.10997012579E+02 0.10501092337E+02 0.10500991740E+02
 0.10996794559E+02 0.11752766600E+02 0.12404710884E+02 0.13065300451E+02 0.12924725160E+02
 0.12172605801E+02 0.11150880721E+02 0.10069496526E+02 0.90367634231E+01 0.81380412608E+01
 0.74412010613E+01 0.69992741284E+01 0.68477161298E+01 0.69992177310E+01 0.74411383868E+01
 0.81380302178E+01 0.90368222014E+01 0.10069586075E+02 0.11150925532E+02 0.12172544223E+02
 0.12924568771E+02 0.13065160125E+02 0.12404741897E+02 0.11055367405E+02 0.94360369690E+01
 0.81261925993E+01 0.76241736020E+01 0.81258834020E+01 0.94356227176E+01 0.11055091682E+02
 0.13482499915E+02 0.14248891285E+02 0.14076831353E+02 0.13291837982E+02 0.12266743509E+02
 0.11177123080E+02 0.10136541190E+02 0.92418103007E+01 0.85812312723E+01 0.82289904441E+01
 0.82290122182E+01 0.85812571129E+01 0.92417901085E+01 0.10136511371E+02 0.11177169554E+02
 0.12266863406E+02 0.13291899625E+02 0.14076719665E+02 0.14248672536E+02 0.13482394297E+02
 0.11752945591E+02 0.94360369690E+01 0.72260154807E+01 0.58766207626E+01 0.58764478194E+01
 0.72255990835E+01 0.94356245241E+01 0.11752768940E+02 0.15278291268E+02 0.15835329447E+02
 0.15472542569E+02 0.14608434656E+02 0.13541775167E+02 0.12409984025E+02 0.11329655111E+02
 0.10421640344E+02 0.98097949003E+01 0.95930580982E+01 0.98097926728E+01 0.10421632046E+02
 0.11329643954E+02 0.12409992454E+02 0.13541831585E+02 0.14608524318E+02 0.15472578045E+02
 0.15835219945E+02 0.15278081201E+02 0.13596628140E+02 0.10997012579E+02 0.81261925993E+01
 0.58766207626E+01 0.50241709662E+01 0.58762017242E+01 0.81256937720E+01 0.10996781363E+02
 0.13596721587E+02 0.17260532216E+02 0.17455290361E+02 0.16897749578E+02 0.15969463262E+02
 0.14841641697E+02 0.13632777855E+02 0.12476414578E+02 0.11538527878E+02 0.11005832269E+02
 0.11005793843E+02 0.11538476536E+02 0.12476438548E+02 0.13632849395E+02 0.14841668877E+02
 0.15969439954E+02 0.16897743737E+02 0.17455289301E+02 0.17260434532E+02 0.15969864234E+02
 0.13566228407E+02 0.10501092337E+02 0.76241736020E+01 0.58764478194E+01 0.58762017242E+01
 0.76236706367E+01 0.10500767287E+02 0.13566249547E+02 0.15970040184E+02 0.18974348746E+02
 0.18860914511E+02 0.18211136341E+02 0.17226411346E+02 0.15992922036E+02 0.14598232498E+02
 0.13246120642E+02 0.12242490179E+02 0.11869618353E+02 0.12242544932E+02 0.13246198726E+02
 0.14598277338E+02 0.15992895908E+02 0.17226342331E+02 0.18211088665E+02 0.18860903454E+02
 0.18974324588E+02 0.18191616600E+02 0.16315158361E+02 0.13536797981E+02 0.10500991740E+02
 0.81258834020E+01 0.72255990835E+01 0.81256937720E+01 0.10500767287E+02 0.13536692107E+02
 0.16315185188E+02 0.18191678088E+02 0.20196564810E+02 0.19959496271E+02 0.19275599022E+02
 0.18146094435E+02 0.16574205304E+02 0.14760734464E+02 0.13119326755E+02 0.12134599409E+02
 0.12134698284E+02 0.13119504016E+02 0.14760786157E+02 0.16574097445E+02 0.18145982066E+02
 0.19275607542E+02 0.19959575376E+02 0.20196591642E+02 0.19801108585E+02 0.18515777463E+02
 0.16315203825E+02 0.13566287738E+02 0.10996794559E+02 0.94356227176E+01 0.94356245241E+01
 0.10996781363E+02 0.13566249547E+02 0.16315185188E+02 0.18515816204E+02 0.19801155325E+02
 0.20923568646E+02 0.20671057423E+02 0.19801110708E+02 0.18191561210E+02 0.15969895302E+02
 0.13596647237E+02 0.11752835452E+02 0.11055272583E+02 0.11752954627E+02 0.13596770280E+02
 0.15969917669E+02 0.18191496223E+02 0.19801062972E+02 0.20671103803E+02 0.20923679974E+02
 0.20671133691E+02 0.19801127221E+02 0.18191569668E+02 0.15969935096E+02 0.13596675464E+02
 0.11752766600E+02 0.11055091682E+02 0.11752768940E+02 0.13596721587E+02 0.15970040184E+02
 0.18191678088E+02 0.19801155325E+02 0.20671057423E+02 0.20252532234E+02 0.19257649652E+02
 0.17003570572E+02 0.13725902809E+02 0.10173756682E+02 0.74056539590E+01 0.63581858976E+01
 0.74056309939E+01 0.10173751977E+02 0.13725948743E+02 0.17003655313E+02 0.19257732586E+02
 0.20252576557E+02 0.20196563769E+02 0.19500894682E+02 0.18432617228E+02 0.17073532027E+02
 0.15514021674E+02 0.13990296278E+02 0.12854829184E+02 0.12432195185E+02 0.12854654852E+02
 0.13990086623E+02 0.15513921289E+02 0.17073571824E+02 0.18432722051E+02 0.19500975498E+02
 0.20196580572E+02 0.19257649652E+02 0.17238783393E+02 0.13767677364E+02 0.94743483714E+01
 0.55016990970E+01 0.31043682189E+01 0.31044996880E+01 0.55019812920E+01 0.94745740159E+01
 0.13767761630E+02 0.17238795724E+02 0.19257657284E+02 0.19801065531E+02 0.19275515009E+02
 0.18211088643E+02 0.16897791834E+02 0.15472611192E+02 0.14076808610E+02 0.12924608231E+02
 0.12264024610E+02 0.12264031073E+02 0.12924586903E+02 0.14076718122E+02 0.15472513129E+02
 0.16897790269E+02 0.18211186705E+02 0.19275610496E+02 0.19801092110E+02 0.17003570572E+02
 0.13767677364E+02 0.92028714785E+01 0.43550371223E+01 0.62587890466E+00 -.77619544826E+00