       N       E                     dE             d eps       ncg     rms          rms(c)
DAV:   1    -0.740477248669E+00   -0.74048E+00   -0.21455E+03   960   0.434E+02
DAV:   2    -0.978649321888E+01   -0.90460E+01   -0.84464E+01  1360   0.582E+01
DAV:   3    -0.985731244104E+01   -0.70819E-01   -0.70805E-01  1144   0.646E+00
DAV:   4    -0.985745488008E+01   -0.14244E-03   -0.14244E-03  1408   0.284E-01
DAV:   5    -0.985745491729E+01   -0.37215E-07   -0.36711E-07  1168   0.428E-03    0.429E+00
DAV:   6    -0.936596579442E+01    0.49149E+00   -0.40783E-01   936   0.347E+00    0.229E+00
DAV:   7    -0.919627853107E+01    0.16969E+00   -0.46725E-01  1072   0.375E+00    0.254E-01
DAV:   8    -0.919624376349E+01    0.34768E-04   -0.13592E-02  1008   0.858E-01    0.110E-01
DAV:   9    -0.919570538385E+01    0.53838E-03   -0.15096E-03  1264   0.227E-01    0.111E-02
DAV:  10    -0.919570868190E+01   -0.32980E-05   -0.20001E-05   552   0.423E-02
   1 F= -.91957087E+01 E0= -.91949024E+01  d E =-.161252E-02
