fcc Si                                  
   3.90000000000000     
     0.500000    0.500000    0.000000
     0.000000    0.500000    0.500000
     0.500000    0.000000    0.500000
   Si
     1
Direct
  0.000000  0.000000  0.000000
 
   20   20   20
 -.26078330191E+01 -.17778434833E+01 0.35284543559E+00 0.29034539881E+01 0.49373746938E+01
 0.59102013695E+01 0.58518296405E+01 0.52263487349E+01 0.45800670254E+01 0.41473718348E+01
 0.39965956372E+01 0.41473718348E+01 0.45800670254E+01 0.52263487349E+01 0.58518296405E+01
 0.59102013695E+01 0.49373746938E+01 0.29034539881E+01 0.35284543559E+00 -.17778434833E+01
 -.17778434833E+01 -.30052665818E+00 0.20153972802E+01 0.42424876459E+01 0.56396043516E+01
 0.59721359101E+01 0.55215277269E+01 0.48314183126E+01 0.42852133423E+01 0.39922804825E+01
 0.39924209997E+01 0.42854539043E+01 0.48314389577E+01 0.55213088070E+01 0.59720599921E+01
 0.56399202459E+01 0.42427973630E+01 0.20150780474E+01 -.30136595634E+00 -.17783061235E+01
 0.35284543559E+00 0.20153972802E+01 0.39552672107E+01 0.54097921614E+01 0.59629385910E+01
 0.56888240751E+01 0.50166405559E+01 0.43932113904E+01 0.39818391364E+01 0.38393228519E+01
 0.39818007891E+01 0.43931850678E+01 0.50166633684E+01 0.56888619915E+01 0.59629245645E+01
 0.54097338805E+01 0.39552656662E+01 0.20155104802E+01 0.35297500753E+00 -.30136595634E+00
 0.29034539881E+01 0.42424876459E+01 0.54097921614E+01 0.59421414244E+01 0.57553349643E+01
 0.51268377753E+01 0.44648457278E+01 0.39694914178E+01 0.37083792154E+01 0.37082592884E+01
 0.39692914323E+01 0.44648291450E+01 0.51269925424E+01 0.57553504793E+01 0.59418830430E+01
 0.54096433355E+01 0.42429219043E+01 0.29042869003E+01 0.20155104802E+01 0.20150780474E+01
 0.49373746938E+01 0.56396043516E+01 0.59629385910E+01 0.57553349643E+01 0.51628240385E+01
 0.45000606210E+01 0.39596653257E+01 0.36142190129E+01 0.34962810246E+01 0.36142076341E+01
 0.39596665818E+01 0.45000845582E+01 0.51628512660E+01 0.57553546697E+01 0.59629809934E+01
 0.56397135627E+01 0.49375364791E+01 0.42429219043E+01 0.39552656662E+01 0.42427973630E+01
 0.59102013695E+01 0.59721359101E+01 0.56888240751E+01 0.51268377753E+01 0.45000606210E+01
 0.39560603114E+01 0.35655099551E+01 0.33642086185E+01 0.33642463071E+01 0.35655767177E+01
 0.39561052577E+01 0.45001248971E+01 0.51269691763E+01 0.56889525945E+01 0.59721280214E+01
 0.59100318204E+01 0.56397135627E+01 0.54096433355E+01 0.54097338805E+01 0.56399202459E+01
 0.58518296405E+01 0.55215277269E+01 0.50166405559E+01 0.44648457278E+01 0.39596653257E+01
 0.35655099551E+01 0.33196978367E+01 0.32367756307E+01 0.33197220476E+01 0.35655322358E+01
 0.39596707669E+01 0.44648460453E+01 0.50166466842E+01 0.55215479522E+01 0.58518755647E+01
 0.59721280214E+01 0.59629809934E+01 0.59418830430E+01 0.59629245645E+01 0.59720599921E+01
 0.52263487349E+01 0.48314183126E+01 0.43932113904E+01 0.39694914178E+01 0.36142190129E+01
 0.33642086185E+01 0.32367756307E+01 0.32368000052E+01 0.33642389369E+01 0.36141616547E+01
 0.39693116387E+01 0.43930428738E+01 0.48314534175E+01 0.52265886118E+01 0.55215479522E+01
 0.56889525945E+01 0.57553546697E+01 0.57553504793E+01 0.56888619915E+01 0.55213088070E+01
 0.45800670254E+01 0.42852133423E+01 0.39818391364E+01 0.37083792154E+01 0.34962810246E+01
 0.33642463071E+01 0.33197220476E+01 0.33642389369E+01 0.34962621998E+01 0.37083562760E+01
 0.39818324737E+01 0.42852344443E+01 0.45801014364E+01 0.48314534175E+01 0.50166466842E+01
 0.51269691763E+01 0.51628512660E+01 0.51269925424E+01 0.50166633684E+01 0.48314389577E+01
 0.41473718348E+01 0.39922804825E+01 0.38393228519E+01 0.37082592884E+01 0.36142076341E+01
 0.35655767177E+01 0.35655322358E+01 0.36141616547E+01 0.37083562760E+01 0.38395538748E+01
 0.39924458629E+01 0.41473039729E+01 0.42852344443E+01 0.43930428738E+01 0.44648460453E+01
 0.45001248971E+01 0.45000845582E+01 0.44648291450E+01 0.43931850678E+01 0.42854539043E+01
 0.39965956372E+01 0.39924209997E+01 0.39818007891E+01 0.39692914323E+01 0.39596665818E+01
 0.39561052577E+01 0.39596707669E+01 0.39693116387E+01 0.39818324737E+01 0.39924458629E+01
 0.39966135225E+01 0.39924458629E+01 0.39818324737E+01 0.39693116387E+01 0.39596707669E+01
 0.39561052577E+01 0.39596665818E+01 0.39692914323E+01 0.39818007891E+01 0.39924209997E+01
 0.41473718348E+01 0.42854539043E+01 0.43931850678E+01 0.44648291450E+01 0.45000845582E+01
 0.45001248971E+01 0.44648460453E+01 0.43930428738E+01 0.42852344443E+01 0.41473039729E+01
 0.39924458629E+01 0.38395538748E+01 0.37083562760E+01 0.36141616547E+01 0.35655322358E+01
 0.35655767177E+01 0.36142076341E+01 0.37082592884E+01 0.38393228519E+01 0.39922804825E+01
 0.45800670254E+01 0.48314389577E+01 0.50166633684E+01 0.51269925424E+01 0.51628512660E+01
 0.51269691763E+01 0.50166466842E+01 0.48314534175E+01 0.45801014364E+01 0.42852344443E+01
 0.39818324737E+01 0.37083562760E+01 0.34962621998E+01 0.33642389369E+01 0.33197220476E+01
 0.33642463071E+01 0.34962810246E+01 0.37083792154E+01 0.39818391364E+01 0.42852133423E+01
 0.52263487349E+01 0.55213088070E+01 0.56888619915E+01 0.57553504793E+01 0.57553546697E+01
 0.56889525945E+01 0.55215479522E+01 0.52265886118E+01 0.48314534175E+01 0.43930428738E+01
 0.39693116387E+01 0.36141616547E+01 0.33642389369E+01 0.32368000052E+01 0.32367756307E+01
 0.33642086185E+01 0.36142190129E+01 0.39694914178E+01 0.43932113904E+01 0.48314183126E+01
 0.58518296405E+01 0.59720599921E+01 0.59629245645E+01 0.59418830430E+01 0.59629809934E+01
 0.59721280214E+01 0.58518755647E+01 0.55215479522E+01 0.50166466842E+01 0.44648460453E+01
 0.39596707669E+01 0.35655322358E+01 0.33197220476E+01 0.32367756307E+01 0.33196978367E+01
 0.35655099551E+01 0.39596653257E+01 0.44648457278E+01 0.50166405559E+01 0.55215277269E+01
 0.59102013695E+01 0.56399202459E+01 0.54097338805E+01 0.54096433355E+01 0.56397135627E+01
 0.59100318204E+01 0.59721280214E+01 0.56889525945E+01 0.51269691763E+01 0.45001248971E+01
 0.39561052577E+01 0.35655767177E+01 0.33642463071E+01 0.33642086185E+01 0.35655099551E+01
 0.39560603114E+01 0.45000606210E+01 0.51268377753E+01 0.56888240751E+01 0.59721359101E+01
 0.49373746938E+01 0.42427973630E+01 0.39552656662E+01 0.42429219043E+01 0.49375364791E+01
 0.56397135627E+01 0.59629809934E+01 0.57553546697E+01 0.51628512660E+01 0.45000845582E+01
 0.39596665818E+01 0.36142076341E+01 0.34962810246E+01 0.36142190129E+01 0.39596653257E+01
 0.45000606210E+01 0.51628240385E+01 0.57553349643E+01 0.59629385910E+01 0.56396043516E+01
 0.29034539881E+01 0.20150780474E+01 0.20155104802E+01 0.29042869003E+01 0.42429219043E+01
 0.54096433355E+01 0.59418830430E+01 0.57553504793E+01 0.51269925424E+01 0.44648291450E+01
 0.39692914323E+01 0.37082592884E+01 0.37083792154E+01 0.39694914178E+01 0.44648457278E+01
 0.51268377753E+01 0.57553349643E+01 0.59421414244E+01 0.54097921614E+01 0.42424876459E+01
 0.35284543559E+00 -.30136595634E+00 0.35297500753E+00 0.20155104802E+01 0.39552656662E+01
 0.54097338805E+01 0.59629245645E+01 0.56888619915E+01 0.50166633684E+01 0.43931850678E+01
 0.39818007891E+01 0.38393228519E+01 0.39818391364E+01 0.43932113904E+01 0.50166405559E+01
 0.56888240751E+01 0.59629385910E+01 0.54097921614E+01 0.39552672107E+01 0.20153972802E+01
 -.17778434833E+01 -.17783061235E+01 -.30136595634E+00 0.20150780474E+01 0.42427973630E+01
 0.56399202459E+01 0.59720599921E+01 0.55213088070E+01 0.48314389577E+01 0.42854539043E+01
 0.39924209997E+01 0.39922804825E+01 0.42852133423E+01 0.48314183126E+01 0.55215277269E+01
 0.59721359101E+01 0.56396043516E+01 0.42424876459E+01 0.20153972802E+01 -.30052665818E+00
 -.17780204618E+01 -.30049633365E+00 0.20156184818E+01 0.42426939569E+01 0.56396201760E+01
 0.59720547864E+01 0.55215470243E+01 0.48315184716E+01 0.42852292197E+01 0.39922158411E+01
 0.39924272753E+01 0.42855358303E+01 0.48314519779E+01 0.55212428476E+01 0.59720653980E+01
 0.56400276297E+01 0.42428410655E+01 0.20149354579E+01 -.30163986443E+00 -.17785881955E+01
 -.30049633365E+00 0.15139190300E+01 0.36494412170E+01 0.52869230185E+01 0.59701481520E+01
 0.57606309663E+01 0.50998429469E+01 0.44678802217E+01 0.40488920052E+01 0.39034590257E+01
 0.40489098997E+01 0.44678477528E+01 0.50997734228E+01 0.57607088835E+01 0.59704895841E+01
 0.52871848067E+01 0.36489858607E+01 0.15126568348E+01 -.30166145679E+00 -.10126352567E+01
 0.20156184818E+01 0.36494412170E+01 0.51310734752E+01 0.59131395310E+01 0.58689323148E+01
 0.52809546497E+01 0.46042622417E+01 0.40912552606E+01 0.38194104274E+01 0.38193138127E+01
 0.40910606615E+01 0.46041681225E+01 0.52810715810E+01 0.58691529224E+01 0.59132182274E+01
 0.51308516589E+01 0.36489942541E+01 0.20151929126E+01 0.94737100390E+00 0.94754258151E+00
 0.42426939569E+01 0.52869230185E+01 0.59131395310E+01 0.58965947010E+01 0.53686022074E+01
 0.46872540416E+01 0.41183137701E+01 0.37514343758E+01 0.36257383763E+01 0.37515124290E+01
 0.41183073857E+01 0.46871258628E+01 0.53684872845E+01 0.58965580166E+01 0.59131291180E+01
 0.52869565269E+01 0.42428380516E+01 0.32761828695E+01 0.28846330889E+01 0.32760172001E+01
 0.56396201760E+01 0.59701481520E+01 0.58689323148E+01 0.53686022074E+01 0.47150841820E+01
 0.41315571029E+01 0.37080259876E+01 0.34884882673E+01 0.34885847601E+01 0.37081757457E+01
 0.41315381091E+01 0.47148987113E+01 0.53684757959E+01 0.58690119008E+01 0.59703213173E+01
 0.56396852300E+01 0.50993701238E+01 0.46997995911E+01 0.46998578028E+01 0.50994436609E+01
 0.59720547864E+01 0.57606309663E+01 0.52809546497E+01 0.46872540416E+01 0.41315571029E+01
 0.36933101326E+01 0.34183532175E+01 0.33253290335E+01 0.34183553651E+01 0.36933057273E+01
 0.41315561652E+01 0.46872909415E+01 0.52810371224E+01 0.57606936622E+01 0.59719968693E+01
 0.59193812330E+01 0.57578189888E+01 0.56762195698E+01 0.57579864411E+01 0.59195631726E+01
 0.55215470243E+01 0.50998429469E+01 0.46042622417E+01 0.41183137701E+01 0.37080259876E+01
 0.34183532175E+01 0.32704520973E+01 0.32704339047E+01 0.34183305970E+01 0.37080421271E+01
 0.41183409446E+01 0.46042229540E+01 0.50997248034E+01 0.55214653701E+01 0.57817908229E+01
 0.58819930490E+01 0.58969802054E+01 0.58968870112E+01 0.58818190877E+01 0.57817194615E+01
 0.48315184716E+01 0.44678802217E+01 0.40912552606E+01 0.37514343758E+01 0.34884882673E+01
 0.33253290335E+01 0.32704339047E+01 0.33253613732E+01 0.34885397363E+01 0.37514143923E+01
 0.40910732675E+01 0.44676231024E+01 0.48314154422E+01 0.51374581630E+01 0.53525931707E+01
 0.54674431423E+01 0.55014250584E+01 0.54671996608E+01 0.53522665690E+01 0.51372865751E+01
 0.42852292197E+01 0.40488920052E+01 0.38194104274E+01 0.36257383763E+01 0.34885847601E+01
 0.34183553651E+01 0.34183305970E+01 0.34885397363E+01 0.36257181539E+01 0.38194173736E+01
 0.40488934745E+01 0.42852139998E+01 0.44986049712E+01 0.46667499061E+01 0.47789645646E+01
 0.48340496479E+01 0.48340340925E+01 0.47789324808E+01 0.46667307607E+01 0.44986121305E+01
 0.39922158411E+01 0.39034590257E+01 0.38193138127E+01 0.37515124290E+01 0.37081757457E+01
 0.36933057273E+01 0.37080421271E+01 0.37514143923E+01 0.38194173736E+01 0.39037285715E+01
 0.39924184334E+01 0.40732319332E+01 0.41374202296E+01 0.41815377663E+01 0.42063897611E+01
 0.42142944772E+01 0.42064382889E+01 0.41816951004E+01 0.41376179694E+01 0.40732701596E+01
 0.39924272753E+01 0.40489098997E+01 0.40910606615E+01 0.41183073857E+01 0.41315381091E+01
 0.41315561652E+01 0.41183409446E+01 0.40910732675E+01 0.40488934745E+01 0.39924184334E+01
 0.39254410172E+01 0.38555055634E+01 0.37924051209E+01 0.37452848483E+01 0.37203397932E+01
 0.37203582866E+01 0.37453068178E+01 0.37923828688E+01 0.38554510545E+01 0.39254075500E+01
 0.42855358303E+01 0.44678477528E+01 0.46041681225E+01 0.46871258628E+01 0.47148987113E+01
 0.46872909415E+01 0.46042229540E+01 0.44676231024E+01 0.42852139998E+01 0.40732319332E+01
 0.38555055634E+01 0.36584810424E+01 0.35046526663E+01 0.34083007138E+01 0.33757295208E+01
 0.34083521521E+01 0.35045886031E+01 0.36582521158E+01 0.38553240001E+01 0.40733343547E+01
 0.48314519779E+01 0.50997734228E+01 0.52810715810E+01 0.53684872845E+01 0.53684757959E+01
 0.52810371224E+01 0.50997248034E+01 0.48314154422E+01 0.44986049712E+01 0.41374202296E+01
 0.37924051209E+01 0.35046526663E+01 0.33023851084E+01 0.31992234598E+01 0.31992283348E+01
 0.33023991521E+01 0.35046681805E+01 0.37924096598E+01 0.41374175532E+01 0.44986149877E+01
 0.55212428476E+01 0.57607088835E+01 0.58691529224E+01 0.58965580166E+01 0.58690119008E+01
 0.57606936622E+01 0.55214653701E+01 0.51374581630E+01 0.46667499061E+01 0.41815377663E+01
 0.37452848483E+01 0.34083007138E+01 0.31992234598E+01 0.31288091035E+01 0.31991624146E+01
 0.34083059112E+01 0.37454427197E+01 0.41817320947E+01 0.46667487611E+01 0.51372226532E+01
 0.59720653980E+01 0.59704895841E+01 0.59132182274E+01 0.59131291180E+01 0.59703213173E+01
 0.59719968693E+01 0.57817908229E+01 0.53525931707E+01 0.47789645646E+01 0.42063897611E+01
 0.37203397932E+01 0.33757295208E+01 0.31992283348E+01 0.31991624146E+01 0.33756192515E+01
 0.37203225307E+01 0.42064533039E+01 0.47789766714E+01 0.53525032781E+01 0.57817146509E+01
 0.56400276297E+01 0.52871848067E+01 0.51308516589E+01 0.52869565269E+01 0.56396852300E+01
 0.59193812330E+01 0.58819930490E+01 0.54674431423E+01 0.48340496479E+01 0.42142944772E+01
 0.37203582866E+01 0.34083521521E+01 0.33023991521E+01 0.34083059112E+01 0.37203225307E+01
 0.42142387613E+01 0.48338953334E+01 0.54672580723E+01 0.58819806819E+01 0.59196228769E+01
 0.42428410655E+01 0.36489858607E+01 0.36489942541E+01 0.42428380516E+01 0.50993701238E+01
 0.57578189888E+01 0.58969802054E+01 0.55014250584E+01 0.48340340925E+01 0.42064382889E+01
 0.37453068178E+01 0.35045886031E+01 0.35046681805E+01 0.37454427197E+01 0.42064533039E+01
 0.48338953334E+01 0.55012664927E+01 0.58969292056E+01 0.57578633567E+01 0.50994157828E+01
 0.20149354579E+01 0.15126568348E+01 0.20151929126E+01 0.32761828695E+01 0.46997995911E+01
 0.56762195698E+01 0.58968870112E+01 0.54671996608E+01 0.47789324808E+01 0.41816951004E+01
 0.37923828688E+01 0.36582521158E+01 0.37924096598E+01 0.41817320947E+01 0.47789766714E+01
 0.54672580723E+01 0.58969292056E+01 0.56761567810E+01 0.46995662513E+01 0.32758423596E+01
 -.30163986443E+00 -.30166145679E+00 0.94737100390E+00 0.28846330889E+01 0.46998578028E+01
 0.57579864411E+01 0.58818190877E+01 0.53522665690E+01 0.46667307607E+01 0.41376179694E+01
 0.38554510545E+01 0.38553240001E+01 0.41374175532E+01 0.46667487611E+01 0.53525032781E+01
 0.58819806819E+01 0.57578633567E+01 0.46995662513E+01 0.28844318251E+01 0.94734355225E+00
 -.17785881955E+01 -.10126352567E+01 0.94754258151E+00 0.32760172001E+01 0.50994436609E+01
 0.59195631726E+01 0.57817194615E+01 0.51372865751E+01 0.44986121305E+01 0.40732701596E+01
 0.39254075500E+01 0.40733343547E+01 0.44986149877E+01 0.51372226532E+01 0.57817146509E+01
 0.59196228769E+01 0.50994157828E+01 0.32758423596E+01 0.94734355225E+00 -.10127413183E+01
 0.35257337110E+00 0.20152492501E+01 0.39553229792E+01 0.54099294538E+01 0.59629838476E+01
 0.56887952384E+01 0.50166705506E+01 0.43932963076E+01 0.39818632686E+01 0.38392871303E+01
 0.39818147004E+01 0.43932539755E+01 0.50166875006E+01 0.56888379113E+01 0.59629540609E+01
 0.54098280934E+01 0.39553109227E+01 0.20154317160E+01 0.35279038773E+00 -.30162458983E+00
 0.20152492501E+01 0.36492459957E+01 0.51311466366E+01 0.59132903164E+01 0.58689461180E+01
 0.52808819064E+01 0.46042769986E+01 0.40913488358E+01 0.38194409855E+01 0.38192737835E+01
 0.40910669371E+01 0.46042321184E+01 0.52810916228E+01 0.58691167639E+01 0.59132281737E+01
 0.51309507785E+01 0.36491078562E+01 0.20152232244E+01 0.94724513602E+00 0.94723599141E+00
 0.39553229792E+01 0.51311466366E+01 0.58752940127E+01 0.59356392156E+01 0.54373741477E+01
 0.47523294843E+01 0.41739995030E+01 0.37997832890E+01 0.36712867657E+01 0.37997321837E+01
 0.41739397230E+01 0.47523012628E+01 0.54373791637E+01 0.59356450743E+01 0.58752761637E+01
 0.51311086861E+01 0.39552843635E+01 0.28842849842E+01 0.24530292181E+01 0.28843059572E+01
 0.54099294538E+01 0.59132903164E+01 0.59356392156E+01 0.54878105610E+01 0.48282153156E+01
 0.42251795648E+01 0.37846008111E+01 0.35553687971E+01 0.35554496645E+01 0.37847242721E+01
 0.42251773087E+01 0.48280990147E+01 0.54876850307E+01 0.59355392970E+01 0.59132527704E+01
 0.54100469543E+01 0.46997680408E+01 0.41942030639E+01 0.41940744520E+01 0.46995302219E+01
 0.59629838476E+01 0.58689461180E+01 0.54373741477E+01 0.48282153156E+01 0.42424909172E+01
 0.37767025270E+01 0.34830022344E+01 0.33833917473E+01 0.34830221056E+01 0.37767032668E+01
 0.42424596963E+01 0.48281842848E+01 0.54373689483E+01 0.58689468509E+01 0.59629587365E+01
 0.57578631111E+01 0.54671502971E+01 0.53349184972E+01 0.54671861714E+01 0.57579090803E+01
 0.56887952384E+01 0.52808819064E+01 0.47523294843E+01 0.42251795648E+01 0.37767025270E+01
 0.34586383633E+01 0.32958148304E+01 0.32957750715E+01 0.34585499908E+01 0.37766289195E+01
 0.42251848197E+01 0.47524496604E+01 0.52810576371E+01 0.56888399252E+01 0.58817866881E+01
 0.58949828470E+01 0.58500813895E+01 0.58502809288E+01 0.58953832320E+01 0.58820286506E+01
 0.50166705506E+01 0.46042769986E+01 0.41739995030E+01 0.37846008111E+01 0.34830022344E+01
 0.32958148304E+01 0.32328331330E+01 0.32958304208E+01 0.34830055353E+01 0.37845742427E+01
 0.41739573300E+01 0.46042436069E+01 0.50166388993E+01 0.53524593173E+01 0.55620861673E+01
 0.56558119428E+01 0.56790976239E+01 0.56558737966E+01 0.55621636244E+01 0.53525132244E+01
 0.43932963076E+01 0.40913488358E+01 0.37997832890E+01 0.35553687971E+01 0.33833917473E+01
 0.32957750715E+01 0.32958304208E+01 0.33835111012E+01 0.35554296298E+01 0.37996733397E+01
 0.40910920947E+01 0.43930704061E+01 0.46667102446E+01 0.48822877996E+01 0.50253494271E+01
 0.50937981643E+01 0.50937133085E+01 0.50251520551E+01 0.48821295213E+01 0.46667404201E+01
 0.39818632686E+01 0.38194409855E+01 0.36712867657E+01 0.35554496645E+01 0.34830221056E+01
 0.34585499908E+01 0.34830055353E+01 0.35554296298E+01 0.36712654364E+01 0.38194124117E+01
 0.39818340736E+01 0.41374019126E+01 0.42679556506E+01 0.43627519459E+01 0.44187378914E+01
 0.44370651950E+01 0.44187459969E+01 0.43627551678E+01 0.42679560721E+01 0.41374158928E+01
 0.38392871303E+01 0.38192737835E+01 0.37997321837E+01 0.37847242721E+01 0.37767032668E+01
 0.37766289195E+01 0.37845742427E+01 0.37996733397E+01 0.38194124117E+01 0.38395302133E+01
 0.38554593247E+01 0.38645223103E+01 0.38670993435E+01 0.38659256396E+01 0.38642840117E+01
 0.38643144989E+01 0.38660404009E+01 0.38672722989E+01 0.38646032393E+01 0.38553302792E+01
 0.39818147004E+01 0.40910669371E+01 0.41739397230E+01 0.42251773087E+01 0.42424596963E+01
 0.42251848197E+01 0.41739573300E+01 0.40910920947E+01 0.39818340736E+01 0.38554593247E+01
 0.37251634783E+01 0.36060559929E+01 0.35118480978E+01 0.34521156237E+01 0.34317461954E+01
 0.34521110819E+01 0.35118489081E+01 0.36060675888E+01 0.37251758994E+01 0.38554573301E+01
 0.43932539755E+01 0.46042321184E+01 0.47523012628E+01 0.48280990147E+01 0.48281842848E+01
 0.47524496604E+01 0.46042436069E+01 0.43930704061E+01 0.41374019126E+01 0.38645223103E+01
 0.36060559929E+01 0.33908802182E+01 0.32393135758E+01 0.31617952610E+01 0.31618025476E+01
 0.32392837310E+01 0.33907680184E+01 0.36059572004E+01 0.38645870359E+01 0.41376222926E+01
 0.50166875006E+01 0.52810916228E+01 0.54373791637E+01 0.54876850307E+01 0.54373689483E+01
 0.52810576371E+01 0.50166388993E+01 0.46667102446E+01 0.42679556506E+01 0.38670993435E+01
 0.35118480978E+01 0.32393135758E+01 0.30706481958E+01 0.30139066453E+01 0.30706638392E+01
 0.32393358158E+01 0.35118587162E+01 0.38670937873E+01 0.42679560721E+01 0.46667396166E+01
 0.56888379113E+01 0.58691167639E+01 0.59356450743E+01 0.59355392970E+01 0.58689468509E+01
 0.56888399252E+01 0.53524593173E+01 0.48822877996E+01 0.43627519459E+01 0.38659256396E+01
 0.34521156237E+01 0.31617952610E+01 0.30139066453E+01 0.30138879239E+01 0.31617846166E+01
 0.34521824846E+01 0.38660432688E+01 0.43627803595E+01 0.48821500928E+01 0.53522858925E+01
 0.59629540609E+01 0.59132281737E+01 0.58752761637E+01 0.59132527704E+01 0.59629587365E+01
 0.58817866881E+01 0.55620861673E+01 0.50253494271E+01 0.44187378914E+01 0.38642840117E+01
 0.34317461954E+01 0.31618025476E+01 0.30706638392E+01 0.31617846166E+01 0.34317111469E+01
 0.38642514992E+01 0.44187419154E+01 0.50254069912E+01 0.55621641228E+01 0.58818338446E+01
 0.54098280934E+01 0.51309507785E+01 0.51311086861E+01 0.54100469543E+01 0.57578631111E+01
 0.58949828470E+01 0.56558119428E+01 0.50937981643E+01 0.44370651950E+01 0.38643144989E+01
 0.34521110819E+01 0.32392837310E+01 0.32393358158E+01 0.34521824846E+01 0.38642514992E+01
 0.44368742127E+01 0.50937227042E+01 0.56560484502E+01 0.58953486083E+01 0.57579646162E+01
 0.39553109227E+01 0.36491078562E+01 0.39552843635E+01 0.46997680408E+01 0.54671502971E+01
 0.58500813895E+01 0.56790976239E+01 0.50937133085E+01 0.44187459969E+01 0.38660404009E+01
 0.35118489081E+01 0.33907680184E+01 0.35118587162E+01 0.38660432688E+01 0.44187419154E+01
 0.50937227042E+01 0.56791278593E+01 0.58501200289E+01 0.54671861714E+01 0.46998037274E+01
 0.20154317160E+01 0.20152232244E+01 0.28842849842E+01 0.41942030639E+01 0.53349184972E+01
 0.58502809288E+01 0.56558737966E+01 0.50251520551E+01 0.43627551678E+01 0.38672722989E+01
 0.36060675888E+01 0.36059572004E+01 0.38670937873E+01 0.43627803595E+01 0.50254069912E+01
 0.56560484502E+01 0.58501200289E+01 0.53346215953E+01 0.41942020827E+01 0.28846154639E+01
 0.35279038773E+00 0.94724513602E+00 0.24530292181E+01 0.41940744520E+01 0.54671861714E+01
 0.58953832320E+01 0.55621636244E+01 0.48821295213E+01 0.42679560721E+01 0.38646032393E+01
 0.37251758994E+01 0.38645870359E+01 0.42679560721E+01 0.48821500928E+01 0.55621641228E+01
 0.58953486083E+01 0.54671861714E+01 0.41942020827E+01 0.24532696063E+01 0.94744416528E+00
 -.30162458983E+00 0.94723599141E+00 0.28843059572E+01 0.46995302219E+01 0.57579090803E+01
 0.58820286506E+01 0.53525132244E+01 0.46667404201E+01 0.41374158928E+01 0.38553302792E+01
 0.38554573301E+01 0.41376222926E+01 0.46667396166E+01 0.53522858925E+01 0.58818338446E+01
 0.57579646162E+01 0.46998037274E+01 0.28846154639E+01 0.94744416528E+00 -.30155557957E+00
 0.29035364471E+01 0.42424345193E+01 0.54096547416E+01 0.59420551880E+01 0.57553504531E+01
 0.51268878725E+01 0.44648621924E+01 0.39694803044E+01 0.37083760804E+01 0.37082704044E+01
 0.39693007882E+01 0.44648304119E+01 0.51269968416E+01 0.57553720127E+01 0.59419145034E+01
 0.54096465662E+01 0.42428723217E+01 0.29042337047E+01 0.20155415102E+01 0.20151948954E+01
 0.42424345193E+01 0.52866987412E+01 0.59130769900E+01 0.58966308917E+01 0.53686025430E+01
 0.46872144657E+01 0.41183200182E+01 0.37514857347E+01 0.36257573888E+01 0.37514921451E+01
 0.41183104660E+01 0.46871581269E+01 0.53684960055E+01 0.58965425387E+01 0.59131460917E+01
 0.52870268684E+01 0.42429313367E+01 0.32762622997E+01 0.28846419465E+01 0.32758817649E+01
 0.54096547416E+01 0.59130769900E+01 0.59356285952E+01 0.54878821791E+01 0.48281978057E+01
 0.42250969408E+01 0.37845798061E+01 0.35554142339E+01 0.35554674802E+01 0.37846968611E+01
 0.42251679528E+01 0.48281207250E+01 0.54876877531E+01 0.59355066573E+01 0.59132258504E+01
 0.54100763666E+01 0.46998875231E+01 0.41943882536E+01 0.41941914623E+01 0.46994297630E+01
 0.59420551880E+01 0.58966308917E+01 0.54878821791E+01 0.48762794619E+01 0.42805728617E+01
 0.38055252127E+01 0.35055350433E+01 0.34036915735E+01 0.35055282826E+01 0.38056121123E+01
 0.42807548819E+01 0.48763514250E+01 0.54876634821E+01 0.58963015583E+01 0.59420677680E+01
 0.56765380895E+01 0.53351400807E+01 0.51828538791E+01 0.53345860925E+01 0.56760245604E+01
 0.57553504531E+01 0.53686025430E+01 0.48281978057E+01 0.42805728617E+01 0.38126645067E+01
 0.34800281393E+01 0.33094819336E+01 0.33094228734E+01 0.34799610924E+01 0.38127509071E+01
 0.42807675149E+01 0.48282698332E+01 0.53684490403E+01 0.57551665393E+01 0.58969426968E+01
 0.58502742172E+01 0.57651822295E+01 0.57650430074E+01 0.58500346404E+01 0.58969009919E+01
 0.51268878725E+01 0.46872144657E+01 0.42250969408E+01 0.38055252127E+01 0.34800281393E+01
 0.32777663210E+01 0.32096112472E+01 0.32776812224E+01 0.34799681144E+01 0.38055608187E+01
 0.42252026079E+01 0.46873412230E+01 0.51269787273E+01 0.54672501491E+01 0.56557796078E+01
 0.57224315580E+01 0.57337579666E+01 0.57226139545E+01 0.56559554552E+01 0.54672785420E+01
 0.44648621924E+01 0.41183200182E+01 0.37845798061E+01 0.35055350433E+01 0.33094819336E+01
 0.32096112472E+01 0.32096020767E+01 0.33094666225E+01 0.35055354943E+01 0.37846046893E+01
 0.41183603055E+01 0.44648958349E+01 0.47789569156E+01 0.50253154751E+01 0.51826076174E+01
 0.52535925973E+01 0.52536376121E+01 0.51827027993E+01 0.50253859861E+01 0.47789656127E+01
 0.39694803044E+01 0.37514857347E+01 0.35554142339E+01 0.34036915735E+01 0.33094228734E+01
 0.32776812224E+01 0.33094666225E+01 0.34037571611E+01 0.35554499212E+01 0.37514376226E+01
 0.39693521761E+01 0.41815728809E+01 0.43627923969E+01 0.44964990809E+01 0.45764307050E+01
 0.46027247045E+01 0.45763349919E+01 0.44964114543E+01 0.43628128340E+01 0.41816956244E+01
 0.37083760804E+01 0.36257573888E+01 0.35554674802E+01 0.35055282826E+01 0.34799610924E+01
 0.34799681144E+01 0.35055354943E+01 0.35554499212E+01 0.36257151066E+01 0.37083457498E+01
 0.37924071903E+01 0.38671290935E+01 0.39250599769E+01 0.39632184761E+01 0.39818174174E+01
 0.39818325635E+01 0.39632370072E+01 0.39250436519E+01 0.38670899008E+01 0.37923935045E+01
 0.37082704044E+01 0.37514921451E+01 0.37846968611E+01 0.38056121123E+01 0.38127509071E+01
 0.38055608187E+01 0.37846046893E+01 0.37514376226E+01 0.37083457498E+01 0.36584336887E+01
 0.36060426128E+01 0.35567733078E+01 0.35165872319E+01 0.34904524906E+01 0.34814430949E+01
 0.34905455471E+01 0.35166988962E+01 0.35567877827E+01 0.36059128523E+01 0.36582577842E+01
 0.39693007882E+01 0.41183104660E+01 0.42251679528E+01 0.42807548819E+01 0.42807675149E+01
 0.42252026079E+01 0.41183603055E+01 0.39693521761E+01 0.37924071903E+01 0.36060426128E+01
 0.34305777880E+01 0.32844773147E+01 0.31811666486E+01 0.31280820531E+01 0.31280728713E+01
 0.31811600242E+01 0.32845012264E+01 0.34306185936E+01 0.36060582330E+01 0.37923797885E+01
 0.44648304119E+01 0.46871581269E+01 0.48281207250E+01 0.48763514250E+01 0.48282698332E+01
 0.46873412230E+01 0.44648958349E+01 0.41815728809E+01 0.38671290935E+01 0.35567733078E+01
 0.32844773147E+01 0.30763124236E+01 0.29474496295E+01 0.29040397511E+01 0.29474140289E+01
 0.30762479352E+01 0.32844489866E+01 0.35568589148E+01 0.38672975819E+01 0.41816774518E+01
 0.51269968416E+01 0.53684960055E+01 0.54876877531E+01 0.54876634821E+01 0.53684490403E+01
 0.51269787273E+01 0.47789569156E+01 0.43627923969E+01 0.39250599769E+01 0.35165872319E+01
 0.31811666486E+01 0.29474496295E+01 0.28286967032E+01 0.28286915313E+01 0.29474499613E+01
 0.31811874545E+01 0.35166035507E+01 0.39250362176E+01 0.43627361880E+01 0.47789209026E+01
 0.57553720127E+01 0.58965425387E+01 0.59355066573E+01 0.58963015583E+01 0.57551665393E+01
 0.54672501491E+01 0.50253154751E+01 0.44964990809E+01 0.39632184761E+01 0.34904524906E+01
 0.31280820531E+01 0.29040397511E+01 0.28286915313E+01 0.29040295833E+01 0.31281224791E+01
 0.34905355021E+01 0.39632192549E+01 0.44963263066E+01 0.50250859434E+01 0.54672002500E+01
 0.59419145034E+01 0.59131460917E+01 0.59132258504E+01 0.59420677680E+01 0.58969426968E+01
 0.56557796078E+01 0.51826076174E+01 0.45764307050E+01 0.39818174174E+01 0.34814430949E+01
 0.31280728713E+01 0.29474140289E+01 0.29474499613E+01 0.31281224791E+01 0.34814278877E+01
 0.39817672793E+01 0.45764489347E+01 0.51827087142E+01 0.56558468767E+01 0.58968748482E+01
 0.54096465662E+01 0.52870268684E+01 0.54100763666E+01 0.56765380895E+01 0.58502742172E+01
 0.57224315580E+01 0.52535925973E+01 0.46027247045E+01 0.39818325635E+01 0.34905455471E+01
 0.31811600242E+01 0.30762479352E+01 0.31811874545E+01 0.34905355021E+01 0.39817672793E+01
 0.46027277634E+01 0.52538038152E+01 0.57227379653E+01 0.58503204797E+01 0.56761683344E+01
 0.42428723217E+01 0.42429313367E+01 0.46998875231E+01 0.53351400807E+01 0.57651822295E+01
 0.57337579666E+01 0.52536376121E+01 0.45763349919E+01 0.39632370072E+01 0.35166988962E+01
 0.32845012264E+01 0.32844489866E+01 0.35166035507E+01 0.39632192549E+01 0.45764489347E+01
 0.52538038152E+01 0.57338370853E+01 0.57651080787E+01 0.53349701009E+01 0.46997341841E+01
 0.29042337047E+01 0.32762622997E+01 0.41943882536E+01 0.51828538791E+01 0.57650430074E+01
 0.57226139545E+01 0.51827027993E+01 0.44964114543E+01 0.39250436519E+01 0.35567877827E+01
 0.34306185936E+01 0.35568589148E+01 0.39250362176E+01 0.44963263066E+01 0.51827087142E+01
 0.57227379653E+01 0.57651080787E+01 0.51827678890E+01 0.41942606230E+01 0.32761994693E+01
 0.20155415102E+01 0.28846419465E+01 0.41941914623E+01 0.53345860925E+01 0.58500346404E+01
 0.56559554552E+01 0.50253859861E+01 0.43628128340E+01 0.38670899008E+01 0.36059128523E+01
 0.36060582330E+01 0.38672975819E+01 0.43627361880E+01 0.50250859434E+01 0.56558468767E+01
 0.58503204797E+01 0.53349701009E+01 0.41942606230E+01 0.28844019944E+01 0.20153830843E+01
 0.20151948954E+01 0.32758817649E+01 0.46994297630E+01 0.56760245604E+01 0.58969009919E+01
 0.54672785420E+01 0.47789656127E+01 0.41816956244E+01 0.37923935045E+01 0.36582577842E+01
 0.37923797885E+01 0.41816774518E+01 0.47789209026E+01 0.54672002500E+01 0.58968748482E+01
 0.56761683344E+01 0.46997341841E+01 0.32761994693E+01 0.20153830843E+01 0.15129771421E+01
 0.49376920148E+01 0.56397971545E+01 0.59629385910E+01 0.57552679941E+01 0.51628110983E+01
 0.45000867526E+01 0.39596653257E+01 0.36141902662E+01 0.34962610362E+01 0.36142058302E+01
 0.39596665818E+01 0.45000783959E+01 0.51628436845E+01 0.57553530676E+01 0.59629809934E+01
 0.56396782478E+01 0.49374266419E+01 0.42427898627E+01 0.39552656662E+01 0.42430180441E+01
 0.56397971545E+01 0.59702049392E+01 0.58688461699E+01 0.53685016896E+01 0.47150683577E+01
 0.41315905549E+01 0.37080326722E+01 0.34884632354E+01 0.34885688827E+01 0.37081796056E+01