   1   1   1   0
  0.1482975E+02  0.2757716E-09  0.2757716E-09  0.2757716E-09  0.5000000E-15
  1.000000000000000E-004
  CAR 
 fcc Si                                  
     28.56849337     -5.93262536  301     12.69879761      1.00000000
     -5.933  0.0000E+00  0.0000E+00
     -5.818  0.0000E+00  0.0000E+00
     -5.703  0.0000E+00  0.0000E+00
     -5.588  0.0000E+00  0.0000E+00
     -5.473  0.0000E+00  0.0000E+00
     -5.358  0.0000E+00  0.0000E+00
     -5.243  0.0000E+00  0.0000E+00
     -5.128  0.0000E+00  0.0000E+00
     -5.013  0.0000E+00  0.0000E+00
     -4.898  0.3048E-13  0.3506E-14
     -4.783  0.2175E-08  0.2502E-09
     -4.668  0.1177E-04  0.1354E-05
     -4.553  0.5088E-02  0.5865E-03
     -4.438  0.1981E+00  0.2337E-01
     -4.323  0.9553E+00  0.1332E+00
     -4.208  0.1076E+01  0.2570E+00
     -4.093  0.4110E+00  0.3043E+00
     -3.978  0.3229E+00  0.3414E+00
     -3.863  0.5136E+00  0.4005E+00
     -3.748  0.3793E+00  0.4441E+00
     -3.633  0.1364E+00  0.4598E+00
     -3.518  0.2553E+00  0.4891E+00
     -3.403  0.1315E+00  0.5043E+00
     -3.288  0.2581E+00  0.5340E+00
     -3.173  0.3586E+00  0.5752E+00
     -3.058  0.2319E+00  0.6019E+00
     -2.943  0.2413E+00  0.6296E+00
     -2.828  0.1636E+00  0.6484E+00
     -2.713  0.1392E-01  0.6500E+00
     -2.598  0.2918E-01  0.6534E+00
     -2.483  0.2114E+00  0.6777E+00
     -2.368  0.2062E+00  0.7014E+00
     -2.253  0.2814E+00  0.7338E+00
     -2.138  0.4256E+00  0.7827E+00
     -2.022  0.1429E+00  0.7992E+00
     -1.907  0.7180E-02  0.8000E+00
     -1.792  0.3645E-04  0.8000E+00
     -1.677  0.2258E-03  0.8000E+00
     -1.562  0.2114E-01  0.8025E+00
     -1.447  0.1916E+00  0.8245E+00
     -1.332  0.2210E+00  0.8499E+00
     -1.217  0.2329E+00  0.8767E+00
     -1.102  0.3578E+00  0.9178E+00
     -0.987  0.2439E+00  0.9459E+00
     -0.872  0.3523E-01  0.9499E+00
     -0.757  0.5491E-03  0.9500E+00
     -0.642  0.7345E-06  0.9500E+00
     -0.527  0.1376E-06  0.9500E+00
     -0.412  0.1743E-03  0.9500E+00
     -0.297  0.1909E-01  0.9522E+00
     -0.182  0.2306E+00  0.9787E+00
     -0.067  0.4466E+00  0.1030E+01
      0.048  0.1641E+00  0.1049E+01
      0.163  0.1187E-01  0.1050E+01
      0.278  0.8324E-01  0.1060E+01
      0.393  0.2537E+00  0.1089E+01
      0.508  0.9143E-01  0.1100E+01
      0.623  0.3513E-02  0.1100E+01
      0.738  0.1210E-04  0.1100E+01
      0.853  0.1412E-05  0.1100E+01
      0.968  0.8533E-03  0.1100E+01
      1.083  0.4472E-01  0.1105E+01
      1.198  0.2551E+00  0.1135E+01
      1.313  0.3340E+00  0.1173E+01
      1.428  0.2102E+00  0.1197E+01
      1.543  0.2442E-01  0.1200E+01
      1.658  0.2890E-03  0.1200E+01
      1.773  0.2551E-03  0.1200E+01
      1.888  0.2267E-01  0.1203E+01
      2.003  0.1958E+00  0.1225E+01
      2.118  0.1975E+00  0.1248E+01
      2.233  0.1149E+00  0.1261E+01
      2.348  0.2539E+00  0.1290E+01
      2.463  0.8176E-01  0.1300E+01
      2.578  0.2785E-02  0.1300E+01
      2.693  0.9892E-05  0.1300E+01
      2.808  0.9156E-03  0.1300E+01
      2.923  0.5391E-01  0.1306E+01
      3.038  0.3754E+00  0.1349E+01
      3.153  0.3816E+00  0.1393E+01
      3.268  0.5675E-01  0.1400E+01
      3.383  0.1002E-02  0.1400E+01
      3.498  0.1669E-05  0.1400E+01
      3.613  0.2706E-04  0.1400E+01
      3.728  0.5855E-02  0.1401E+01
      3.843  0.1156E+00  0.1414E+01
      3.958  0.2486E+00  0.1443E+01
      4.073  0.6302E-01  0.1450E+01
      4.188  0.8727E-02  0.1451E+01
      4.303  0.1256E+00  0.1465E+01
      4.418  0.2475E+00  0.1494E+01
      4.533  0.2059E+00  0.1517E+01
      4.648  0.8988E+00  0.1621E+01
      4.763  0.9518E+00  0.1730E+01
      4.878  0.5211E+00  0.1790E+01
      4.993  0.3878E+00  0.1835E+01
      5.108  0.3295E+00  0.1873E+01
      5.223  0.4396E+00  0.1923E+01
      5.338  0.1202E+01  0.2061E+01
      5.453  0.1173E+01  0.2196E+01
      5.568  0.8060E+00  0.2289E+01
      5.683  0.7947E+00  0.2380E+01
      5.798  0.1386E+01  0.2540E+01
      5.913  0.8424E+00  0.2637E+01
      6.028  0.5400E+00  0.2699E+01
      6.143  0.3585E+00  0.2740E+01
      6.258  0.8484E-01  0.2750E+01
      6.373  0.2937E-02  0.2750E+01
      6.488  0.1808E-01  0.2752E+01
      6.603  0.1820E+00  0.2773E+01
      6.718  0.2510E+00  0.2802E+01
      6.833  0.4140E+00  0.2849E+01
      6.948  0.4002E+00  0.2896E+01
      7.063  0.2180E+00  0.2921E+01
      7.178  0.4937E+00  0.2977E+01
      7.293  0.1944E+00  0.3000E+01
      7.408  0.1278E+00  0.3014E+01
      7.523  0.2482E+00  0.3043E+01
      7.638  0.1102E+00  0.3056E+01
      7.753  0.3633E+00  0.3097E+01
      7.868  0.4123E+00  0.3145E+01
      7.983  0.2530E+00  0.3174E+01
      8.098  0.2018E+00  0.3197E+01
      8.213  0.2449E-01  0.3200E+01
      8.328  0.1716E-02  0.3200E+01
      8.443  0.8043E-01  0.3209E+01
      8.558  0.4583E+00  0.3262E+01
      8.673  0.3063E+00  0.3297E+01
      8.788  0.2300E-01  0.3300E+01
      8.903  0.1876E-02  0.3300E+01
      9.018  0.6415E-01  0.3308E+01
      9.133  0.2500E+00  0.3336E+01
      9.248  0.1696E+00  0.3356E+01
      9.363  0.3956E+00  0.3401E+01
      9.478  0.3739E+00  0.3444E+01
      9.593  0.4869E-01  0.3450E+01
      9.708  0.6944E-02  0.3451E+01
      9.823  0.1196E+00  0.3464E+01
      9.938  0.2895E+00  0.3498E+01
     10.053  0.3224E+00  0.3535E+01
     10.168  0.3657E+00  0.3577E+01
     10.283  0.1847E+00  0.3598E+01
     10.398  0.1607E-01  0.3600E+01
     10.513  0.2581E-02  0.3600E+01
     10.628  0.7664E-01  0.3609E+01
     10.743  0.2531E+00  0.3638E+01
     10.858  0.1149E+00  0.3651E+01
     10.973  0.1792E+00  0.3672E+01
     11.088  0.2129E+00  0.3697E+01
     11.203  0.3083E-01  0.3700E+01
     11.318  0.4561E-01  0.3705E+01
     11.433  0.2354E+00  0.3732E+01
     11.548  0.1437E+00  0.3749E+01
     11.663  0.3087E-01  0.3752E+01
     11.778  0.2931E+00  0.3786E+01
     11.893  0.4649E+00  0.3840E+01
     12.008  0.9005E-01  0.3850E+01
     12.123  0.6210E-01  0.3857E+01
     12.238  0.2473E+00  0.3886E+01
     12.353  0.1262E+00  0.3900E+01
     12.468  0.1876E+00  0.3922E+01
     12.583  0.5076E+00  0.3980E+01
     12.698  0.1734E+00  0.4000E+01
     12.813  0.2746E+00  0.4032E+01
     12.928  0.1553E+01  0.4210E+01
     13.043  0.1776E+01  0.4414E+01
     13.158  0.1013E+01  0.4531E+01
     13.273  0.8277E+00  0.4626E+01
     13.388  0.8429E+00  0.4723E+01
     13.503  0.4049E+00  0.4770E+01
     13.618  0.2748E+00  0.4801E+01
     13.733  0.3614E+00  0.4843E+01
     13.848  0.7417E+00  0.4928E+01
     13.963  0.7892E+00  0.5019E+01
     14.078  0.2592E+00  0.5049E+01
     14.193  0.5629E-01  0.5055E+01
     14.308  0.4221E+00  0.5104E+01
     14.423  0.9248E+00  0.5210E+01
     14.538  0.1255E+01  0.5354E+01
     14.653  0.1100E+01  0.5481E+01
     14.768  0.5791E+00  0.5547E+01
     14.883  0.3847E+00  0.5592E+01
     14.998  0.3941E+00  0.5637E+01
     15.113  0.4662E+00  0.5691E+01
     15.228  0.1495E+00  0.5708E+01
     15.343  0.3803E+00  0.5751E+01
     15.458  0.8429E+00  0.5848E+01
     15.573  0.7743E+00  0.5937E+01
     15.688  0.4449E+00  0.5989E+01
     15.803  0.5039E+00  0.6047E+01
     15.918  0.3216E+00  0.6084E+01
     16.033  0.2192E+00  0.6109E+01
     16.148  0.3535E+00  0.6149E+01
     16.263  0.4371E+00  0.6200E+01
     16.378  0.4162E+00  0.6248E+01
     16.493  0.8835E+00  0.6349E+01
     16.608  0.1973E+01  0.6576E+01
     16.723  0.1171E+01  0.6711E+01
     16.838  0.6945E+00  0.6791E+01
     16.953  0.7574E+00  0.6878E+01
     17.068  0.7214E+00  0.6961E+01
     17.183  0.3974E+00  0.7006E+01
     17.298  0.2874E+00  0.7039E+01
     17.413  0.2351E+00  0.7067E+01
     17.528  0.4630E+00  0.7120E+01
     17.643  0.2554E+00  0.7149E+01
     17.758  0.2091E+00  0.7173E+01
     17.873  0.6436E+00  0.7247E+01
     17.988  0.1269E+01  0.7393E+01
     18.103  0.1981E+01  0.7621E+01
     18.218  0.1241E+01  0.7764E+01
     18.333  0.1046E+01  0.7884E+01
     18.448  0.7471E+00  0.7970E+01
     18.563  0.1038E+01  0.8089E+01
     18.678  0.7548E+00  0.8176E+01
     18.793  0.2139E+00  0.8201E+01
     18.908  0.3697E+00  0.8243E+01
     19.023  0.1126E+01  0.8373E+01
     19.138  0.6242E+00  0.8444E+01
     19.253  0.1751E+00  0.8465E+01
     19.368  0.6467E+00  0.8539E+01
     19.483  0.1120E+01  0.8668E+01
     19.598  0.8262E+00  0.8763E+01
     19.713  0.3852E+00  0.8807E+01
     19.828  0.5871E+00  0.8875E+01
     19.943  0.5547E+00  0.8938E+01
     20.058  0.4432E+00  0.8989E+01
     20.173  0.6064E+00  0.9059E+01
     20.288  0.4548E+00  0.9111E+01
     20.403  0.8580E+00  0.9210E+01
     20.518  0.2644E+01  0.9514E+01
     20.633  0.1851E+01  0.9727E+01
     20.748  0.8609E+00  0.9826E+01
     20.863  0.6522E+00  0.9901E+01
     20.978  0.3992E+00  0.9947E+01
     21.093  0.2078E+00  0.9971E+01
     21.208  0.3250E+00  0.1001E+02
     21.323  0.5829E+00  0.1008E+02
     21.438  0.5167E+00  0.1013E+02
     21.553  0.1597E+00  0.1015E+02
     21.668  0.6973E+00  0.1023E+02
     21.783  0.1797E+01  0.1044E+02
     21.898  0.1107E+01  0.1057E+02
     22.013  0.9339E+00  0.1067E+02
     22.128  0.2439E+00  0.1070E+02
     22.243  0.4394E+00  0.1075E+02
     22.358  0.7092E+00  0.1083E+02
     22.473  0.2464E+00  0.1086E+02
     22.588  0.3270E+00  0.1090E+02
     22.703  0.7231E+00  0.1098E+02
     22.818  0.1282E+01  0.1113E+02
     22.933  0.8981E+00  0.1123E+02
     23.048  0.6219E+00  0.1131E+02
     23.163  0.7213E+00  0.1139E+02
     23.278  0.4522E+00  0.1144E+02
     23.393  0.1081E+00  0.1145E+02
     23.508  0.2196E+00  0.1148E+02
     23.623  0.1878E+00  0.1150E+02
     23.738  0.3841E+00  0.1154E+02
     23.853  0.1113E+01  0.1167E+02
     23.968  0.6123E+00  0.1174E+02
     24.083  0.5982E-01  0.1175E+02
     24.198  0.8076E-03  0.1175E+02
     24.313  0.1184E-05  0.1175E+02
     24.428  0.1380E-03  0.1175E+02
     24.543  0.2068E-01  0.1175E+02
     24.658  0.2929E+00  0.1179E+02
     24.773  0.4664E+00  0.1184E+02
     24.888  0.8769E-01  0.1185E+02
     25.003  0.1683E-02  0.1185E+02
     25.118  0.2816E-05  0.1185E+02
     25.233  0.4257E-09  0.1185E+02
     25.348  0.5271E-06  0.1185E+02
     25.463  0.4376E-03  0.1185E+02
     25.578  0.3084E-01  0.1185E+02
     25.693  0.2146E+00  0.1188E+02
     25.808  0.1730E+00  0.1190E+02
     25.923  0.1579E-01  0.1190E+02
     26.038  0.1372E-03  0.1190E+02
     26.153  0.9907E-07  0.1190E+02
     26.268  0.5543E-11  0.1190E+02
     26.383  0.4827E-16  0.1190E+02
     26.498  0.9531E-11  0.1190E+02
     26.613  0.1565E-06  0.1190E+02
     26.728  0.2069E-03  0.1190E+02
     26.843  0.2431E-01  0.1190E+02
     26.958  0.2979E+00  0.1194E+02
     27.073  0.4548E+00  0.1199E+02
     27.188  0.9034E-01  0.1200E+02
     27.303  0.2026E-02  0.1200E+02
     27.418  0.4285E-05  0.1200E+02
     27.533  0.7554E-09  0.1200E+02
     27.648  0.1033E-13  0.1200E+02
     27.763  0.0000E+00  0.1200E+02
     27.878  0.0000E+00  0.1200E+02
     27.993  0.0000E+00  0.1200E+02
     28.108  0.0000E+00  0.1200E+02
     28.223  0.0000E+00  0.1200E+02
     28.338  0.0000E+00  0.1200E+02
     28.453  0.0000E+00  0.1200E+02
     28.568  0.0000E+00  0.1200E+02
     28.56849337     -5.93262536  301     12.69879761      1.00000000
     -5.933  0.0000E+00  0.0000E+00  0.0000E+00  0.0000E+00  0.0000E+00  0.0000E+00  0.0000E+00  0.0000E+00  0.0000E+00
     -5.818  0.0000E+00  0.0000E+00  0.0000E+00  0.0000E+00  0.0000E+00  0.0000E+00  0.0000E+00  0.0000E+00  0.0000E+00
     -5.703  0.0000E+00  0.0000E+00  0.0000E+00  0.0000E+00  0.0000E+00  0.0000E+00  0.0000E+00  0.0000E+00  0.0000E+00
     -5.588  0.0000E+00  0.0000E+00  0.0000E+00  0.0000E+00  0.0000E+00  0.0000E+00  0.0000E+00  0.0000E+00  0.0000E+00
     -5.473  0.0000E+00  0.0000E+00  0.0000E+00  0.0000E+00  0.0000E+00  0.0000E+00  0.0000E+00  0.0000E+00  0.0000E+00
     -5.358  0.0000E+00  0.0000E+00  0.0000E+00  0.0000E+00  0.0000E+00  0.0000E+00  0.0000E+00  0.0000E+00  0.0000E+00
     -5.243  0.0000E+00  0.0000E+00  0.0000E+00  0.0000E+00  0.0000E+00  0.0000E+00  0.0000E+00  0.0000E+00  0.0000E+00
     -5.128  0.0000E+00  0.0000E+00  0.0000E+00  0.0000E+00  0.0000E+00  0.0000E+00  0.0000E+00  0.0000E+00  0.0000E+00
     -5.013  0.0000E+00  0.0000E+00  0.0000E+00  0.0000E+00  0.0000E+00  0.0000E+00  0.0000E+00  0.0000E+00  0.0000E+00
     -4.898  0.1182E-13  0.1075E-36  0.2837E-36  0.2434E-36  0.0000E+00  0.0000E+00  0.0000E+00  0.0000E+00  0.0000E+00
     -4.783  0.8433E-09  0.1338E-15  0.1568E-15  0.1312E-15  0.0000E+00  0.0000E+00  0.0000E+00  0.0000E+00  0.0000E+00
     -4.668  0.4564E-05  0.5408E-11  0.7159E-11  0.5137E-11  0.0000E+00  0.0000E+00  0.0000E+00  0.0000E+00  0.0000E+00
     -4.553  0.1972E-02  0.1755E-07  0.2765E-07  0.1539E-07  0.0000E+00  0.0000E+00  0.0000E+00  0.0000E+00  0.0000E+00
     -4.438  0.7679E-01  0.5088E-05  0.9711E-05  0.3728E-05  0.0000E+00  0.0000E+00  0.0000E+00  0.0000E+00  0.0000E+00
     -4.323  0.3700E+00  0.1555E-03  0.3404E-03  0.8186E-04  0.0000E+00  0.0000E+00  0.0000E+00  0.0000E+00  0.0000E+00
     -4.208  0.4159E+00  0.5992E-03  0.1362E-02  0.1978E-03  0.0000E+00  0.0000E+00  0.0000E+00  0.0000E+00  0.0000E+00
     -4.093  0.1583E+00  0.4730E-03  0.8571E-03  0.2166E-03  0.0000E+00  0.0000E+00  0.0000E+00  0.0000E+00  0.0000E+00
     -3.978  0.1228E+00  0.8173E-03  0.1452E-02  0.7336E-03  0.0000E+00  0.0000E+00  0.0000E+00  0.0000E+00  0.0000E+00
     -3.863  0.1942E+00  0.1354E-02  0.4262E-02  0.3882E-03  0.0000E+00  0.0000E+00  0.0000E+00  0.0000E+00  0.0000E+00
     -3.748  0.1430E+00  0.1623E-02  0.3236E-02  0.4168E-04  0.0000E+00  0.0000E+00  0.0000E+00  0.0000E+00  0.0000E+00
     -3.633  0.5088E-01  0.8534E-03  0.9521E-03  0.5502E-03  0.0000E+00  0.0000E+00  0.0000E+00  0.0000E+00  0.0000E+00
     -3.518  0.9464E-01  0.1686E-02  0.1705E-02  0.1680E-02  0.0000E+00  0.0000E+00  0.0000E+00  0.0000E+00  0.0000E+00
     -3.403  0.4850E-01  0.6109E-03  0.1669E-02  0.6062E-03  0.0000E+00  0.0000E+00  0.0000E+00  0.0000E+00  0.0000E+00
     -3.288  0.9407E-01  0.4050E-03  0.6510E-02  0.2333E-04  0.0000E+00  0.0000E+00  0.0000E+00  0.0000E+00  0.0000E+00
     -3.173  0.1302E+00  0.3013E-02  0.7124E-02  0.6396E-05  0.0000E+00  0.0000E+00  0.0000E+00  0.0000E+00  0.0000E+00
     -3.058  0.8380E-01  0.3130E-02  0.3440E-02  0.4013E-03  0.0000E+00  0.0000E+00  0.0000E+00  0.0000E+00  0.0000E+00
     -2.943  0.8637E-01  0.2821E-02  0.2823E-02  0.2539E-02  0.0000E+00  0.0000E+00  0.0000E+00  0.0000E+00  0.0000E+00
     -2.828  0.5849E-01  0.1871E-02  0.1871E-02  0.1868E-02  0.0000E+00  0.0000E+00  0.0000E+00  0.0000E+00  0.0000E+00
     -2.713  0.4973E-02  0.1546E-03  0.1729E-03  0.1546E-03  0.0000E+00  0.0000E+00  0.0000E+00  0.0000E+00  0.0000E+00
     -2.598  0.1012E-01  0.1220E-05  0.1348E-02  0.1210E-05  0.0000E+00  0.0000E+00  0.0000E+00  0.0000E+00  0.0000E+00
     -2.483  0.7328E-01  0.9174E-05  0.9787E-02  0.4785E-07  0.0000E+00  0.0000E+00  0.0000E+00  0.0000E+00  0.0000E+00
     -2.368  0.7137E-01  0.7212E-03  0.8930E-02  0.2285E-04  0.0000E+00  0.0000E+00  0.0000E+00  0.0000E+00  0.0000E+00
     -2.253  0.9649E-01  0.6211E-02  0.6993E-02  0.9664E-03  0.0000E+00  0.0000E+00  0.0000E+00  0.0000E+00  0.0000E+00
     -2.138  0.1457E+00  0.8747E-02  0.8754E-02  0.4198E-02  0.0000E+00  0.0000E+00  0.0000E+00  0.0000E+00  0.0000E+00
     -2.022  0.4890E-01  0.2594E-02  0.2594E-02  0.2146E-02  0.0000E+00  0.0000E+00  0.0000E+00  0.0000E+00  0.0000E+00
     -1.907  0.2456E-02  0.1245E-03  0.1245E-03  0.1202E-03  0.0000E+00  0.0000E+00  0.0000E+00  0.0000E+00  0.0000E+00
     -1.792  0.1246E-04  0.6225E-06  0.6369E-06  0.6191E-06  0.0000E+00  0.0000E+00  0.0000E+00  0.0000E+00  0.0000E+00
     -1.677  0.7334E-04  0.2604E-09  0.1607E-04  0.2602E-09  0.0000E+00  0.0000E+00  0.0000E+00  0.0000E+00  0.0000E+00
     -1.562  0.6866E-02  0.5690E-08  0.1505E-02  0.5690E-08  0.0000E+00  0.0000E+00  0.0000E+00  0.0000E+00  0.0000E+00
     -1.447  0.6223E-01  0.6028E-05  0.1363E-01  0.6025E-05  0.0000E+00  0.0000E+00  0.0000E+00  0.0000E+00  0.0000E+00
     -1.332  0.7179E-01  0.5400E-03  0.1464E-01  0.5359E-03  0.0000E+00  0.0000E+00  0.0000E+00  0.0000E+00  0.0000E+00
     -1.217  0.7591E-01  0.5141E-02  0.6818E-02  0.4626E-02  0.0000E+00  0.0000E+00  0.0000E+00  0.0000E+00  0.0000E+00
     -1.102  0.1159E+00  0.1078E-01  0.1080E-01  0.4580E-02  0.0000E+00  0.0000E+00  0.0000E+00  0.0000E+00  0.0000E+00
     -0.987  0.7844E-01  0.8925E-02  0.8925E-02  0.5194E-03  0.0000E+00  0.0000E+00  0.0000E+00  0.0000E+00  0.0000E+00
     -0.872  0.1132E-01  0.1331E-02  0.1331E-02  0.5707E-05  0.0000E+00  0.0000E+00  0.0000E+00  0.0000E+00  0.0000E+00
     -0.757  0.1764E-03  0.2080E-04  0.2080E-04  0.5261E-08  0.0000E+00  0.0000E+00  0.0000E+00  0.0000E+00  0.0000E+00
     -0.642  0.2359E-06  0.2782E-07  0.2782E-07  0.3778E-12  0.0000E+00  0.0000E+00  0.0000E+00  0.0000E+00  0.0000E+00
     -0.527  0.4098E-07  0.1079E-10  0.1368E-07  0.7873E-11  0.0000E+00  0.0000E+00  0.0000E+00  0.0000E+00  0.0000E+00
     -0.412  0.5192E-04  0.5511E-07  0.1723E-04  0.5511E-07  0.0000E+00  0.0000E+00  0.0000E+00  0.0000E+00  0.0000E+00
     -0.297  0.5699E-02  0.3049E-04  0.1829E-02  0.3049E-04  0.0000E+00  0.0000E+00  0.0000E+00  0.0000E+00  0.0000E+00
     -0.182  0.6937E-01  0.1460E-02  0.1953E-01  0.1460E-02  0.0000E+00  0.0000E+00  0.0000E+00  0.0000E+00  0.0000E+00
     -0.067  0.1364E+00  0.7109E-02  0.2776E-01  0.7109E-02  0.0000E+00  0.0000E+00  0.0000E+00  0.0000E+00  0.0000E+00
      0.048  0.5082E-01  0.4062E-02  0.6786E-02  0.4062E-02  0.0000E+00  0.0000E+00  0.0000E+00  0.0000E+00  0.0000E+00
      0.163  0.3660E-02  0.4049E-03  0.4401E-03  0.2566E-03  0.0000E+00  0.0000E+00  0.0000E+00  0.0000E+00  0.0000E+00
      0.278  0.2478E-01  0.4278E-02  0.4278E-02  0.1502E-05  0.0000E+00  0.0000E+00  0.0000E+00  0.0000E+00  0.0000E+00
      0.393  0.7553E-01  0.1304E-01  0.1304E-01  0.7605E-09  0.0000E+00  0.0000E+00  0.0000E+00  0.0000E+00  0.0000E+00
      0.508  0.2722E-01  0.4700E-02  0.4700E-02  0.1475E-10  0.0000E+00  0.0000E+00  0.0000E+00  0.0000E+00  0.0000E+00
      0.623  0.1046E-02  0.1806E-03  0.1806E-03  0.5657E-12  0.0000E+00  0.0000E+00  0.0000E+00  0.0000E+00  0.0000E+00
      0.738  0.3603E-05  0.6221E-06  0.6221E-06  0.5852E-11  0.0000E+00  0.0000E+00  0.0000E+00  0.0000E+00  0.0000E+00
      0.853  0.4420E-06  0.4509E-07  0.4509E-07  0.4492E-07  0.0000E+00  0.0000E+00  0.0000E+00  0.0000E+00  0.0000E+00
      0.968  0.2671E-03  0.2720E-04  0.2723E-04  0.2720E-04  0.0000E+00  0.0000E+00  0.0000E+00  0.0000E+00  0.0000E+00
      1.083  0.1399E-01  0.1419E-02  0.1448E-02  0.1419E-02  0.0000E+00  0.0000E+00  0.0000E+00  0.0000E+00  0.0000E+00
      1.198  0.7889E-01  0.7481E-02  0.1022E-01  0.7481E-02  0.0000E+00  0.0000E+00  0.0000E+00  0.0000E+00  0.0000E+00
      1.313  0.9578E-01  0.4617E-02  0.3001E-01  0.4617E-02  0.0000E+00  0.0000E+00  0.0000E+00  0.0000E+00  0.0000E+00
      1.428  0.5650E-01  0.3167E-03  0.2718E-01  0.3167E-03  0.0000E+00  0.0000E+00  0.0000E+00  0.0000E+00  0.0000E+00
      1.543  0.6515E-02  0.2026E-05  0.3271E-02  0.2026E-05  0.0000E+00  0.0000E+00  0.0000E+00  0.0000E+00  0.0000E+00
      1.658  0.7706E-04  0.1661E-07  0.3876E-04  0.1064E-08  0.0000E+00  0.0000E+00  0.0000E+00  0.0000E+00  0.0000E+00
      1.773  0.7063E-04  0.1647E-04  0.1651E-04  0.7500E-13  0.0000E+00  0.0000E+00  0.0000E+00  0.0000E+00  0.0000E+00
      1.888  0.6277E-02  0.1465E-02  0.1465E-02  0.2842E-11  0.0000E+00  0.0000E+00  0.0000E+00  0.0000E+00  0.0000E+00
      2.003  0.5420E-01  0.1265E-01  0.1265E-01  0.2454E-10  0.0000E+00  0.0000E+00  0.0000E+00  0.0000E+00  0.0000E+00
      2.118  0.5534E-01  0.1253E-01  0.1253E-01  0.2430E-10  0.0000E+00  0.0000E+00  0.0000E+00  0.0000E+00  0.0000E+00
      2.233  0.4884E-01  0.1421E-02  0.1421E-02  0.2756E-11  0.0000E+00  0.0000E+00  0.0000E+00  0.0000E+00  0.0000E+00
      2.348  0.1167E+00  0.1562E-04  0.1562E-04  0.3029E-13  0.0000E+00  0.0000E+00  0.0000E+00  0.0000E+00  0.0000E+00
      2.463  0.3761E-01  0.1440E-07  0.1440E-07  0.2793E-16  0.0000E+00  0.0000E+00  0.0000E+00  0.0000E+00  0.0000E+00
      2.578  0.1281E-02  0.1151E-11  0.3448E-10  0.1167E-12  0.0000E+00  0.0000E+00  0.0000E+00  0.0000E+00  0.0000E+00
      2.693  0.4196E-05  0.3028E-08  0.2581E-06  0.3028E-08  0.0000E+00  0.0000E+00  0.0000E+00  0.0000E+00  0.0000E+00
      2.808  0.1893E-03  0.6047E-05  0.1600E-03  0.6047E-05  0.0000E+00  0.0000E+00  0.0000E+00  0.0000E+00  0.0000E+00
      2.923  0.9842E-02  0.9899E-03  0.8994E-02  0.9899E-03  0.0000E+00  0.0000E+00  0.0000E+00  0.0000E+00  0.0000E+00
      3.038  0.5173E-01  0.1506E-01  0.5713E-01  0.1506E-01  0.0000E+00  0.0000E+00  0.0000E+00  0.0000E+00  0.0000E+00
      3.153  0.3183E-01  0.2540E-01  0.5129E-01  0.2540E-01  0.0000E+00  0.0000E+00  0.0000E+00  0.0000E+00  0.0000E+00
      3.268  0.2177E-02  0.5021E-02  0.6792E-02  0.5021E-02  0.0000E+00  0.0000E+00  0.0000E+00  0.0000E+00  0.0000E+00
      3.383  0.1387E-04  0.1007E-03  0.1119E-03  0.1007E-03  0.0000E+00  0.0000E+00  0.0000E+00  0.0000E+00  0.0000E+00
      3.498  0.1004E-07  0.1749E-06  0.1808E-06  0.1742E-06  0.0000E+00  0.0000E+00  0.0000E+00  0.0000E+00  0.0000E+00
      3.613  0.7422E-05  0.1968E-05  0.1968E-05  0.2381E-10  0.0000E+00  0.0000E+00  0.0000E+00  0.0000E+00  0.0000E+00
      3.728  0.1606E-02  0.4260E-03  0.4260E-03  0.1018E-11  0.0000E+00  0.0000E+00  0.0000E+00  0.0000E+00  0.0000E+00
      3.843  0.3172E-01  0.8414E-02  0.8414E-02  0.2014E-10  0.0000E+00  0.0000E+00  0.0000E+00  0.0000E+00  0.0000E+00
      3.958  0.6820E-01  0.1809E-01  0.1809E-01  0.1203E-08  0.0000E+00  0.0000E+00  0.0000E+00  0.0000E+00  0.0000E+00
      4.073  0.1728E-01  0.4585E-02  0.4585E-02  0.2748E-05  0.0000E+00  0.0000E+00  0.0000E+00  0.0000E+00  0.0000E+00
      4.188  0.1482E-02  0.6510E-03  0.6510E-03  0.5308E-03  0.0000E+00  0.0000E+00  0.0000E+00  0.0000E+00  0.0000E+00
      4.303  0.1828E-01  0.9426E-02  0.9428E-02  0.9426E-02  0.0000E+00  0.0000E+00  0.0000E+00  0.0000E+00  0.0000E+00
      4.418  0.3559E-01  0.1836E-01  0.1939E-01  0.1836E-01  0.0000E+00  0.0000E+00  0.0000E+00  0.0000E+00  0.0000E+00
      4.533  0.8154E-02  0.4205E-02  0.5803E-01  0.4205E-02  0.0000E+00  0.0000E+00  0.0000E+00  0.0000E+00  0.0000E+00
      4.648  0.1918E-03  0.9891E-04  0.3224E+00  0.9891E-04  0.0000E+00  0.0000E+00  0.0000E+00  0.0000E+00  0.0000E+00
      4.763  0.3929E-06  0.2027E-06  0.3413E+00  0.2027E-06  0.0000E+00  0.0000E+00  0.0000E+00  0.0000E+00  0.0000E+00
      4.878  0.5408E-09  0.1160E-09  0.1861E+00  0.1160E-09  0.0000E+00  0.0000E+00  0.0000E+00  0.0000E+00  0.0000E+00
      4.993  0.2694E-05  0.2985E-09  0.1378E+00  0.2985E-09  0.0000E+00  0.0000E+00  0.0000E+00  0.0000E+00  0.0000E+00
      5.108  0.1481E-02  0.1970E-06  0.1155E+00  0.1970E-06  0.0000E+00  0.0000E+00  0.0000E+00  0.0000E+00  0.0000E+00
      5.223  0.7422E-01  0.1812E-04  0.9887E-01  0.1812E-04  0.0000E+00  0.0000E+00  0.0000E+00  0.0000E+00  0.0000E+00
      5.338  0.4292E+00  0.2424E-03  0.9868E-01  0.2424E-03  0.0000E+00  0.0000E+00  0.0000E+00  0.0000E+00  0.0000E+00
      5.453  0.4478E+00  0.7839E-03  0.7467E-01  0.7879E-03  0.0000E+00  0.0000E+00  0.0000E+00  0.0000E+00  0.0000E+00
      5.568  0.2541E+00  0.1264E-02  0.9132E-01  0.2418E-02  0.0000E+00  0.0000E+00  0.0000E+00  0.0000E+00  0.0000E+00
      5.683  0.2537E+00  0.5069E-02  0.5965E-01  0.3466E-01  0.0000E+00  0.0000E+00  0.0000E+00  0.0000E+00  0.0000E+00
      5.798  0.4131E+00  0.1643E-01  0.9629E-01  0.9668E-01  0.0000E+00  0.0000E+00  0.0000E+00  0.0000E+00  0.0000E+00
      5.913  0.3310E+00  0.8395E-02  0.3287E-01  0.3375E-01  0.0000E+00  0.0000E+00  0.0000E+00  0.0000E+00  0.0000E+00
      6.028  0.2459E+00  0.8075E-02  0.8390E-02  0.8899E-02  0.0000E+00  0.0000E+00  0.0000E+00  0.0000E+00  0.0000E+00
      6.143  0.9293E-01  0.1962E-01  0.1952E-01  0.1962E-01  0.0000E+00  0.0000E+00  0.0000E+00  0.0000E+00  0.0000E+00
      6.258  0.1359E-01  0.6260E-02  0.6257E-02  0.6260E-02  0.0000E+00  0.0000E+00  0.0000E+00  0.0000E+00  0.0000E+00
      6.373  0.4015E-03  0.2119E-03  0.2118E-03  0.2700E-03  0.0000E+00  0.0000E+00  0.0000E+00  0.0000E+00  0.0000E+00
      6.488  0.1229E-05  0.6864E-06  0.6622E-06  0.6091E-02  0.0000E+00  0.0000E+00  0.0000E+00  0.0000E+00  0.0000E+00
      6.603  0.4142E-04  0.5291E-04  0.2646E-04  0.6119E-01  0.0000E+00  0.0000E+00  0.0000E+00  0.0000E+00  0.0000E+00
      6.718  0.3792E-02  0.4844E-02  0.2422E-02  0.7230E-01  0.0000E+00  0.0000E+00  0.0000E+00  0.0000E+00  0.0000E+00
      6.833  0.3362E-01  0.4294E-01  0.2148E-01  0.3069E-01  0.0000E+00  0.0000E+00  0.0000E+00  0.0000E+00  0.0000E+00
      6.948  0.3559E-01  0.4379E-01  0.2287E-01  0.2211E-01  0.0000E+00  0.0000E+00  0.0000E+00  0.0000E+00  0.0000E+00
      7.063  0.3263E-01  0.1300E-01  0.2356E-01  0.1046E-01  0.0000E+00  0.0000E+00  0.0000E+00  0.0000E+00  0.0000E+00
      7.178  0.6138E-01  0.3461E-01  0.4499E-01  0.3458E-01  0.0000E+00  0.0000E+00  0.0000E+00  0.0000E+00  0.0000E+00
      7.293  0.1722E-01  0.1817E-01  0.1178E-01  0.1773E-01  0.0000E+00  0.0000E+00  0.0000E+00  0.0000E+00  0.0000E+00
      7.408  0.3362E-01  0.9509E-02  0.8807E-02  0.9977E-03  0.0000E+00  0.0000E+00  0.0000E+00  0.0000E+00  0.0000E+00
      7.523  0.6897E-01  0.1768E-01  0.1767E-01  0.2623E-03  0.0000E+00  0.0000E+00  0.0000E+00  0.0000E+00  0.0000E+00
      7.638  0.1708E-01  0.5398E-02  0.4322E-02  0.1481E-01  0.0000E+00  0.0000E+00  0.0000E+00  0.0000E+00  0.0000E+00
      7.753  0.4058E-02  0.1845E-01  0.1266E-03  0.9393E-01  0.0000E+00  0.0000E+00  0.0000E+00  0.0000E+00  0.0000E+00
      7.868  0.9267E-02  0.3599E-01  0.1687E-02  0.8462E-01  0.0000E+00  0.0000E+00  0.0000E+00  0.0000E+00  0.0000E+00
      7.983  0.2484E-01  0.2322E-01  0.1567E-01  0.2671E-01  0.0000E+00  0.0000E+00  0.0000E+00  0.0000E+00  0.0000E+00
      8.098  0.2483E-01  0.1681E-01  0.1664E-01  0.1683E-01  0.0000E+00  0.0000E+00  0.0000E+00  0.0000E+00  0.0000E+00
      8.213  0.3027E-02  0.2031E-02  0.2031E-02  0.2031E-02  0.0000E+00  0.0000E+00  0.0000E+00  0.0000E+00  0.0000E+00
      8.328  0.2898E-03  0.1803E-03  0.9600E-04  0.1084E-03  0.0000E+00  0.0000E+00  0.0000E+00  0.0000E+00  0.0000E+00
      8.443  0.1363E-01  0.8977E-02  0.3794E-02  0.5183E-02  0.0000E+00  0.0000E+00  0.0000E+00  0.0000E+00  0.0000E+00
      8.558  0.7399E-01  0.5204E-01  0.2023E-01  0.3181E-01  0.0000E+00  0.0000E+00  0.0000E+00  0.0000E+00  0.0000E+00
      8.673  0.4707E-01  0.3535E-01  0.1262E-01  0.2274E-01  0.0000E+00  0.0000E+00  0.0000E+00  0.0000E+00  0.0000E+00
      8.788  0.3344E-02  0.2701E-02  0.8757E-03  0.1826E-02  0.0000E+00  0.0000E+00  0.0000E+00  0.0000E+00  0.0000E+00
      8.903  0.2229E-04  0.1949E-04  0.5672E-05  0.5543E-03  0.0000E+00  0.0000E+00  0.0000E+00  0.0000E+00  0.0000E+00
      9.018  0.8701E-07  0.2031E-06  0.1519E-07  0.2024E-01  0.0000E+00  0.0000E+00  0.0000E+00  0.0000E+00  0.0000E+00
      9.133  0.5732E-04  0.1186E-03  0.2027E-04  0.7875E-01  0.0000E+00  0.0000E+00  0.0000E+00  0.0000E+00  0.0000E+00
      9.248  0.4578E-02  0.6322E-02  0.2789E-02  0.4232E-01  0.0000E+00  0.0000E+00  0.0000E+00  0.0000E+00  0.0000E+00
      9.363  0.4342E-01  0.3400E-01  0.3609E-01  0.3579E-01  0.0000E+00  0.0000E+00  0.0000E+00  0.0000E+00  0.0000E+00
      9.478  0.5372E-01  0.2139E-01  0.5232E-01  0.2140E-01  0.0000E+00  0.0000E+00  0.0000E+00  0.0000E+00  0.0000E+00
      9.593  0.8388E-02  0.1501E-02  0.8849E-02  0.1498E-02  0.0000E+00  0.0000E+00  0.0000E+00  0.0000E+00  0.0000E+00
      9.708  0.1641E-02  0.6896E-03  0.8295E-03  0.9903E-05  0.0000E+00  0.0000E+00  0.0000E+00  0.0000E+00  0.0000E+00
      9.823  0.2878E-01  0.1304E-01  0.1304E-01  0.6764E-04  0.0000E+00  0.0000E+00  0.0000E+00  0.0000E+00  0.0000E+00
      9.938  0.6397E-01  0.3081E-01  0.3075E-01  0.3799E-02  0.0000E+00  0.0000E+00  0.0000E+00  0.0000E+00  0.0000E+00
     10.053  0.3917E-01  0.3200E-01  0.2738E-01  0.2538E-01  0.0000E+00  0.0000E+00  0.0000E+00  0.0000E+00  0.0000E+00
     10.168  0.2490E-01  0.4607E-01  0.1365E-01  0.4590E-01  0.0000E+00  0.0000E+00  0.0000E+00  0.0000E+00  0.0000E+00
     10.283  0.8796E-02  0.2731E-01  0.9779E-03  0.2731E-01  0.0000E+00  0.0000E+00  0.0000E+00  0.0000E+00  0.0000E+00
     10.398  0.7162E-03  0.2430E-02  0.6633E-05  0.2432E-02  0.0000E+00  0.0000E+00  0.0000E+00  0.0000E+00  0.0000E+00
     10.513  0.6219E-05  0.2125E-04  0.3705E-08  0.7677E-03  0.0000E+00  0.0000E+00  0.0000E+00  0.0000E+00  0.0000E+00
     10.628  0.9549E-08  0.3278E-07  0.4221E-10  0.2344E-01  0.0000E+00  0.0000E+00  0.0000E+00  0.0000E+00  0.0000E+00
     10.743  0.5199E-05  0.2333E-04  0.1388E-09  0.7737E-01  0.0000E+00  0.0000E+00  0.0000E+00  0.0000E+00  0.0000E+00
     10.858  0.5842E-03  0.2624E-02  0.5638E-10  0.3277E-01  0.0000E+00  0.0000E+00  0.0000E+00  0.0000E+00  0.0000E+00
     10.973  0.6267E-02  0.2815E-01  0.5290E-10  0.2941E-01  0.0000E+00  0.0000E+00  0.0000E+00  0.0000E+00  0.0000E+00
     11.088  0.7619E-02  0.3422E-01  0.1973E-06  0.3422E-01  0.0000E+00  0.0000E+00  0.0000E+00  0.0000E+00  0.0000E+00
     11.203  0.1248E-02  0.4934E-02  0.1178E-03  0.4816E-02  0.0000E+00  0.0000E+00  0.0000E+00  0.0000E+00  0.0000E+00
     11.318  0.9039E-02  0.6132E-02  0.6065E-02  0.6681E-04  0.0000E+00  0.0000E+00  0.0000E+00  0.0000E+00  0.0000E+00
     11.433  0.4700E-01  0.3159E-01  0.3159E-01  0.9132E-07  0.0000E+00  0.0000E+00  0.0000E+00  0.0000E+00  0.0000E+00
     11.548  0.2868E-01  0.1929E-01  0.1928E-01  0.1863E-04  0.0000E+00  0.0000E+00  0.0000E+00  0.0000E+00  0.0000E+00
     11.663  0.3665E-02  0.3686E-02  0.3438E-02  0.2381E-02  0.0000E+00  0.0000E+00  0.0000E+00  0.0000E+00  0.0000E+00
     11.778  0.2775E-01  0.2877E-01  0.3630E-01  0.2876E-01  0.0000E+00  0.0000E+00  0.0000E+00  0.0000E+00  0.0000E+00
     11.893  0.4993E-01  0.3910E-01  0.6793E-01  0.3910E-01  0.0000E+00  0.0000E+00  0.0000E+00  0.0000E+00  0.0000E+00
     12.008  0.1077E-01  0.6329E-02  0.1509E-01  0.6329E-02  0.0000E+00  0.0000E+00  0.0000E+00  0.0000E+00  0.0000E+00