    1    1    1    1
  0.1482975E+02  0.2757716E-09  0.2757716E-09  0.2757716E-09  0.5000000E-15
  1.000000000000000E-004
  CAR 
 fcc Si                                  
      4     40      6
 
  0.5000000E+00  0.5000000E+00  0.5000000E+00  0.2500000E-01
    1        2.286726
    2        3.065925
    3       18.024909
    4       18.024909
    5       20.705648
    6       20.705648
 
  0.4444444E+00  0.4444444E+00  0.4444444E+00  0.2500000E-01
    1        1.171503
    2        4.338712
    3       18.019188
    4       18.019188
    5       20.858896
    6       20.858897
 
  0.3888889E+00  0.3888889E+00  0.3888889E+00  0.2500000E-01
    1       -0.097689
    2        6.081553
    3       18.026574
    4       18.026574
    5       21.291049
    6       21.291049
 
  0.3333333E+00  0.3333333E+00  0.3333333E+00  0.2500000E-01
    1       -1.218018
    2        7.986063
    3       18.093856
    4       18.093856
    5       21.940522
    6       21.940548
 
  0.2777778E+00  0.2777778E+00  0.2777778E+00  0.2500000E-01
    1       -2.173759
    2       10.029567
    3       18.253080
    4       18.253080
    5       22.670756
    6       22.727988
 
  0.2222222E+00  0.2222222E+00  0.2222222E+00  0.2500000E-01
    1       -2.959134
    2       12.198623
    3       18.534126
    4       18.534126
    5       22.739779
    6       23.494637
 
  0.1666667E+00  0.1666667E+00  0.1666667E+00  0.2500000E-01
    1       -3.572461
    2       14.467730
    3       18.941317
    4       18.941317
    5       22.827168
    6       23.758174
 
  0.1111111E+00  0.1111111E+00  0.1111111E+00  0.2500000E-01
    1       -4.011842
    2       16.787956
    3       19.469741
    4       19.469741
    5       22.823354
    6       23.139398
 
  0.5555556E-01  0.5555556E-01  0.5555556E-01  0.2500000E-01
    1       -4.275997
    2       19.017280
    3       20.078260
    4       20.078260
    5       22.271788
    6       22.271854
 
  0.0000000E+00  0.0000000E+00  0.0000000E+00  0.2500000E-01
    1       -4.364393
    2       20.479716
    3       20.479942
    4       20.479943
    5       21.725010
    6       21.725216
 
  0.0000000E+00  0.0000000E+00  0.0000000E+00  0.2500000E-01
    1       -4.364393
    2       20.479717
    3       20.479942
    4       20.479949
    5       21.725122
    6       21.725216
 
  0.0000000E+00  0.5555556E-01  0.5555556E-01  0.2500000E-01
    1       -4.246534
    2       19.328683
    3       19.328840
    4       20.201461
    5       21.108434
    6       23.075673
 
  0.0000000E+00  0.1111111E+00  0.1111111E+00  0.2500000E-01
    1       -3.894414
    2       17.878716
    3       17.878855
    4       19.438306
    5       19.802853
    6       24.678465
 
  0.0000000E+00  0.1666667E+00  0.1666667E+00  0.2500000E-01
    1       -3.308924
    2       16.576507
    3       16.576635
    4       18.269932
    5       18.454944
    6       21.945787
 
  0.0000000E+00  0.2222222E+00  0.2222222E+00  0.2500000E-01
    1       -2.491985
    2       15.461088
    3       15.461206
    4       16.565078
    5       17.244377
    6       19.795158
 
  0.0000000E+00  0.2777778E+00  0.2777778E+00  0.2500000E-01
    1       -1.445589
    2       14.290578
    3       14.538340
    4       14.538485
    5       16.204747
    6       18.414429
 
  0.0000000E+00  0.3333333E+00  0.3333333E+00  0.2500000E-01
    1       -0.175215
    2       11.811825
    3       13.820522
    4       13.820661
    5       15.401756
    6       17.519483
 
  0.0000000E+00  0.3888889E+00  0.3888889E+00  0.2500000E-01
    1        1.315667
    2        9.382967
    3       13.307042
    4       13.307176
    5       14.826065
    6       16.934942
 
  0.0000000E+00  0.4444444E+00  0.4444444E+00  0.2500000E-01
    1        3.011405
    2        7.103841
    3       12.997670
    4       12.997802
    5       14.477485
    6       16.590024
 
  0.0000000E+00  0.5000000E+00  0.5000000E+00  0.2500000E-01
    1        4.615885
    2        5.303694
    3       12.894450
    4       12.894581
    5       14.361067
    6       16.480237
 
  0.0000000E+00  0.5000000E+00  0.5000000E+00  0.2500000E-01
    1        4.615885
    2        5.303694
    3       12.894450
    4       12.894581
    5       14.361067
    6       16.480237
 
  0.2777778E-01  0.5138889E+00  0.5138889E+00  0.2500000E-01
    1        4.629738
    2        5.317173
    3       12.522476
    4       12.907359
    5       14.625989
    6       16.623971
 
  0.5555556E-01  0.5277778E+00  0.5277778E+00  0.2500000E-01
    1        4.671298
    2        5.357461
    3       11.794559
    4       12.945683
    5       15.017871
    6       17.069969
 
  0.8333333E-01  0.5416667E+00  0.5416667E+00  0.2500000E-01
    1        4.740564
    2        5.424070
    3       10.983497
    4       13.009535
    5       15.301436
    6       17.780625
 
  0.1111111E+00  0.5555556E+00  0.5555556E+00  0.2500000E-01
    1        4.837530
    2        5.515893
    3       10.156655
    4       13.098848
    5       15.510715
    6       18.654551
 
  0.1388889E+00  0.5694444E+00  0.5694444E+00  0.2500000E-01
    1        4.962204
    2        5.630812
    3        9.337813
    4       13.213584
    5       15.697291
    6       19.617197
 
  0.1666667E+00  0.5833333E+00  0.5833333E+00  0.2500000E-01
    1        5.114562
    2        5.763319
    3        8.539674
    4       13.353458
    5       15.887348
    6       20.627858
 
  0.1944444E+00  0.5972222E+00  0.5972222E+00  0.2500000E-01
    1        5.294931
    2        5.898140
    3        7.786710
    4       13.518664
    5       16.096001
    6       21.685788
 
  0.2222222E+00  0.6111111E+00  0.6111111E+00  0.2500000E-01
    1        5.502681
    2        5.972183
    3        7.141746
    4       13.708946
    5       16.321443
    6       22.750395
 
  0.2500000E+00  0.6250000E+00  0.6250000E+00  0.2500000E-01
    1        5.738033
    2        5.757568
    3        6.833612
    4       13.923920
    5       16.561098
    6       23.822134
 
  0.3750000E+00  0.7500000E+00  0.3750000E+00  0.2500000E-01
    1        5.738033
    2        5.757568
    3        6.833612
    4       13.923920
    5       16.561098
    6       23.822134
 
  0.3333333E+00  0.6666667E+00  0.3333333E+00  0.2500000E-01
    1        3.884007
    2        6.609990
    3        7.447257
    4       14.716708
    5       17.455955
    6       27.000261
 
  0.2916667E+00  0.5833333E+00  0.2916667E+00  0.2500000E-01
    1        2.002100
    2        7.728963
    3        8.532330
    4       15.719433
    5       18.572152
    6       26.964752
 
  0.2500000E+00  0.5000000E+00  0.2500000E+00  0.2500000E-01
    1        0.337597
    2        9.090696
    3        9.862491
    4       16.907028
    5       19.894677
    6       25.681742
 
  0.2083333E+00  0.4166667E+00  0.2083333E+00  0.2500000E-01
    1       -1.086002
    2       10.692123
    3       11.406201
    4       18.215765
    5       21.394305
    6       24.688786
 
  0.1666667E+00  0.3333333E+00  0.1666667E+00  0.2500000E-01
    1       -2.260220
    2       12.524390
    3       13.138527
    4       19.488945
    5       23.014830
    6       23.788112
 
  0.1250000E+00  0.2500000E+00  0.1250000E+00  0.2500000E-01
    1       -3.177783
    2       14.566049
    3       15.024138
    4       20.323192
    5       22.899908
    6       23.875208
 
  0.8333333E-01  0.1666667E+00  0.8333333E-01  0.2500000E-01
    1       -3.835895
    2       16.779234
    3       17.018282
    4       20.547969
    5       22.264902
    6       23.205337
 
  0.4166667E-01  0.8333333E-01  0.4166667E-01  0.2500000E-01
    1       -4.231904
    2       18.996382
    3       19.019874
    4       20.513775
    5       21.882085
    6       22.517172
 
  0.0000000E+00  0.0000000E+00  0.0000000E+00  0.2500000E-01
    1       -4.364393
    2       20.479716
    3       20.479942
    4       20.479943
    5       21.725105
    6       21.725216
