 vasp.5.3.5 31Mar14 (build Feb  5 2015 19:39:53) complex                        
  
 executed on              HPCUofA date 2017.11.13  12:32:45
 running on    1 total cores
 distrk:  each k-point on    1 cores,    1 groups
 distr:  one band on NCORES_PER_BAND=   1 cores,    1 groups


--------------------------------------------------------------------------------------------------------


 INCAR:
 POTCAR:   PAW Si 02Apr1999                       
 POTCAR:   PAW Si 02Apr1999                       
   VRHFIN =Si: s2p2                                                             
   LEXCH  = CA                                                                  
   EATOM  =   103.4338 eV,    7.6022 Ry                                         
                                                                                
   TITEL  = PAW Si 02Apr1999                                                    
   LULTRA =        F    use ultrasoft PP ?                                      
   IUNSCR =        1    unscreen: 0-lin 1-nonlin 2-no                           
   RPACOR =    1.500    partial core radius                                     
   POMASS =   28.085; ZVAL   =    4.000    mass and valenz                      
   RCORE  =    1.900    outmost cutoff radius                                   
   RWIGS  =    2.480; RWIGS  =    1.312    wigner-seitz radius (au A)           
   ENMAX  =  245.704; ENMIN  =  184.278 eV                                      
   ICORE  =        2    local potential                                         
   LCOR   =        T    correct aug charges                                     
   LPAW   =        T    paw PP                                                  
   EAUG   =  322.069                                                            
   DEXC   =    -.006                                                            
   RMAX   =    2.941    core radius for proj-oper                               
   RAUG   =    1.300    factor for augmentation sphere                          
   RDEP   =    1.993    core radius for depl-charge                             
   QCUT   =   -4.250; QGAM   =    8.499    optimization parameters              
                                                                                
   Description                                                                  
     l     E      TYP  RCUT    TYP  RCUT                                        
     0   .000     23  1.900                                                     
     0   .000     23  1.900                                                     
     1   .000     23  1.900                                                     
     1   .000     23  1.900                                                     
     2   .000      7  1.900                                                     
  local pseudopotential read in
  partial core-charges read in
  atomic valenz-charges read in
  non local Contribution for L=           0  read in
    real space projection operators read in
  non local Contribution for L=           0  read in
    real space projection operators read in
  non local Contribution for L=           1  read in
    real space projection operators read in
  non local Contribution for L=           1  read in
    real space projection operators read in
    PAW grid and wavefunctions read in
 
   number of l-projection  operators is LMAX  =           4
   number of lm-projection operators is LMMAX =           8
 
 PAW Si 02Apr1999                       :
 energy of atom  1       EATOM= -103.4338
 kinetic energy error for atom=    0.0062 (will be added to EATOM!!)
 
 
 POSCAR: fcc Si:                                 
  positions in cartesian coordinates
  No initial velocities read in
 exchange correlation table for  LEXCH =        2
   RHO(1)=    0.500       N(1)  =     2000
   RHO(2)=  100.500       N(2)  =     4000
 


--------------------------------------------------------------------------------------------------------


 ion  position               nearest neighbor table
   1  0.000  0.000  0.000-
 
  LATTYP: Found a face centered cubic cell.
 ALAT       =     3.9000000000
  
  Lattice vectors:
  
 A1 = (   1.9500000000,   1.9500000000,   0.0000000000)
 A2 = (   0.0000000000,   1.9500000000,   1.9500000000)
 A3 = (   1.9500000000,   0.0000000000,   1.9500000000)


Analysis of symmetry for initial positions (statically):
=====================================================================
 Subroutine PRICEL returns:
 Original cell was already a primitive cell.
 

 Routine SETGRP: Setting up the symmetry group for a 
 face centered cubic supercell.


 Subroutine GETGRP returns: Found 48 space group operations
 (whereof 48 operations were pure point group operations)
 out of a pool of 48 trial point group operations.


The static configuration has the point symmetry O_h .


Analysis of symmetry for dynamics (positions and initial velocities):
=====================================================================
 Subroutine PRICEL returns:
 Original cell was already a primitive cell.
 

 Routine SETGRP: Setting up the symmetry group for a 
 face centered cubic supercell.


 Subroutine GETGRP returns: Found 48 space group operations
 (whereof 48 operations were pure point group operations)
 out of a pool of 48 trial point group operations.


The dynamic configuration has the point symmetry O_h .
 
 
 KPOINTS: kpoints for bandstructure L-G-X-U K-G   
  interpolating k-points between supplied coordinates
  k-points in reciprocal lattice
Space group operators:
 irot       det(A)        alpha          n_x          n_y          n_z        tau_x        tau_y        tau_z
    1     1.000000     0.000000     1.000000     0.000000     0.000000     0.000000     0.000000     0.000000
    2    -1.000000     0.000000     1.000000     0.000000     0.000000     0.000000     0.000000     0.000000
    3     1.000000   120.000000    -0.577350    -0.577350    -0.577350     0.000000     0.000000     0.000000
    4    -1.000000   120.000000    -0.577350    -0.577350    -0.577350     0.000000     0.000000     0.000000
    5     1.000000   120.000000     0.577350     0.577350     0.577350     0.000000     0.000000     0.000000
    6    -1.000000   120.000000     0.577350     0.577350     0.577350     0.000000     0.000000     0.000000
    7     1.000000    90.000000     0.000000    -1.000000     0.000000     0.000000     0.000000     0.000000
    8    -1.000000    90.000000     0.000000    -1.000000     0.000000     0.000000     0.000000     0.000000
    9     1.000000   180.000000     0.707107     0.707107     0.000000     0.000000     0.000000     0.000000
   10    -1.000000   180.000000     0.707107     0.707107     0.000000     0.000000     0.000000     0.000000
   11     1.000000    90.000000     1.000000     0.000000     0.000000     0.000000     0.000000     0.000000
   12    -1.000000    90.000000     1.000000     0.000000     0.000000     0.000000     0.000000     0.000000
   13     1.000000   180.000000     0.000000     1.000000     0.000000     0.000000     0.000000     0.000000
   14    -1.000000   180.000000     0.000000     1.000000     0.000000     0.000000     0.000000     0.000000
   15     1.000000   120.000000     0.577350     0.577350    -0.577350     0.000000     0.000000     0.000000
   16    -1.000000   120.000000     0.577350     0.577350    -0.577350     0.000000     0.000000     0.000000
   17     1.000000   120.000000     0.577350    -0.577350    -0.577350     0.000000     0.000000     0.000000
   18    -1.000000   120.000000     0.577350    -0.577350    -0.577350     0.000000     0.000000     0.000000
   19     1.000000    90.000000     0.000000     1.000000     0.000000     0.000000     0.000000     0.000000
   20    -1.000000    90.000000     0.000000     1.000000     0.000000     0.000000     0.000000     0.000000
   21     1.000000    90.000000     0.000000     0.000000    -1.000000     0.000000     0.000000     0.000000
   22    -1.000000    90.000000     0.000000     0.000000    -1.000000     0.000000     0.000000     0.000000
   23     1.000000   180.000000     0.000000     0.707107     0.707107     0.000000     0.000000     0.000000
   24    -1.000000   180.000000     0.000000     0.707107     0.707107     0.000000     0.000000     0.000000
   25     1.000000   120.000000    -0.577350     0.577350     0.577350     0.000000     0.000000     0.000000
   26    -1.000000   120.000000    -0.577350     0.577350     0.577350     0.000000     0.000000     0.000000
   27     1.000000   120.000000    -0.577350     0.577350    -0.577350     0.000000     0.000000     0.000000
   28    -1.000000   120.000000    -0.577350     0.577350    -0.577350     0.000000     0.000000     0.000000
   29     1.000000   179.999999     0.000000     0.000000     1.000000     0.000000     0.000000     0.000000
   30    -1.000000   179.999999     0.000000     0.000000     1.000000     0.000000     0.000000     0.000000
   31     1.000000    90.000000    -1.000000     0.000000     0.000000     0.000000     0.000000     0.000000
   32    -1.000000    90.000000    -1.000000     0.000000     0.000000     0.000000     0.000000     0.000000
   33     1.000000   180.000000     0.707107     0.000000     0.707107     0.000000     0.000000     0.000000
   34    -1.000000   180.000000     0.707107     0.000000     0.707107     0.000000     0.000000     0.000000
   35     1.000000    90.000000     0.000000     0.000000     1.000000     0.000000     0.000000     0.000000
   36    -1.000000    90.000000     0.000000     0.000000     1.000000     0.000000     0.000000     0.000000
   37     1.000000   120.000000    -0.577350    -0.577350     0.577350     0.000000     0.000000     0.000000
   38    -1.000000   120.000000    -0.577350    -0.577350     0.577350     0.000000     0.000000     0.000000
   39     1.000000   180.000000     1.000000     0.000000     0.000000     0.000000     0.000000     0.000000
   40    -1.000000   180.000000     1.000000     0.000000     0.000000     0.000000     0.000000     0.000000
   41     1.000000   120.000000     0.577350    -0.577350     0.577350     0.000000     0.000000     0.000000
   42    -1.000000   120.000000     0.577350    -0.577350     0.577350     0.000000     0.000000     0.000000
   43     1.000000   180.000000     0.707107    -0.707107     0.000000     0.000000     0.000000     0.000000
   44    -1.000000   180.000000     0.707107    -0.707107     0.000000     0.000000     0.000000     0.000000
   45     1.000000   180.000000     0.707107     0.000000    -0.707107     0.000000     0.000000     0.000000
   46    -1.000000   180.000000     0.707107     0.000000    -0.707107     0.000000     0.000000     0.000000
   47     1.000000   180.000000     0.000000    -0.707107     0.707107     0.000000     0.000000     0.000000
   48    -1.000000   180.000000     0.000000    -0.707107     0.707107     0.000000     0.000000     0.000000


--------------------------------------------------------------------------------------------------------




 Dimension of arrays:
   k-points           NKPTS =     40   k-points in BZ     NKDIM =     40   number of bands    NBANDS=      6
   number of dos      NEDOS =    301   number of ions     NIONS =      1
   non local maximal  LDIM  =      4   non local SUM 2l+1 LMDIM =      8
   total plane-waves  NPLWV =   1000
   max r-space proj   IRMAX =      1   max aug-charges    IRDMAX=   2454
   dimension x,y,z NGX =    10 NGY =   10 NGZ =   10
   dimension x,y,z NGXF=    20 NGYF=   20 NGZF=   20
   support grid    NGXF=    20 NGYF=   20 NGZF=   20
   ions per type =               1
 NGX,Y,Z   is equivalent  to a cutoff of   6.03,  6.03,  6.03 a.u.
 NGXF,Y,Z  is equivalent  to a cutoff of  12.06, 12.06, 12.06 a.u.


 I would recommend the setting:
   dimension x,y,z NGX =    10 NGY =   10 NGZ =   10
 SYSTEM =  fcc Si                                  
 POSCAR =  fcc Si:                                 

 Startparameter for this run:
   NWRITE =      2    write-flag & timer
   PREC   = normal    normal or accurate (medium, high low for compatibility)
   ISTART =      0    job   : 0-new  1-cont  2-samecut
   ICHARG =     11    charge: 1-file 2-atom 10-const
   ISPIN  =      1    spin polarized calculation?
   LNONCOLLINEAR =      F non collinear calculations
   LSORBIT =      F    spin-orbit coupling
   INIWAV =      1    electr: 0-lowe 1-rand  2-diag
   LASPH  =      F    aspherical Exc in radial PAW
   METAGGA=      F    non-selfconsistent MetaGGA calc.

 Electronic Relaxation 1
   ENCUT  =  240.0 eV  17.64 Ry    4.20 a.u.   3.48  3.48  3.48*2*pi/ulx,y,z
   ENINI  =  240.0     initial cutoff
   ENAUG  =  322.1 eV  augmentation charge cutoff
   NELM   =     60;   NELMIN=  2; NELMDL= -5     # of ELM steps 
   EDIFF  = 0.1E-03   stopping-criterion for ELM
   LREAL  =      F    real-space projection
   NLSPLINE    = F    spline interpolate recip. space projectors
   LCOMPAT=      F    compatible to vasp.4.4
   GGA_COMPAT  = T    GGA compatible to vasp.4.4-vasp.4.6
   LMAXPAW     = -100 max onsite density
   LMAXMIX     =    2 max onsite mixed and CHGCAR
   VOSKOWN=      0    Vosko Wilk Nusair interpolation
   ROPT   =    0.00000
 Ionic relaxation
   EDIFFG = 0.1E-02   stopping-criterion for IOM
   NSW    =      0    number of steps for IOM
   NBLOCK =      1;   KBLOCK =      1    inner block; outer block 
   IBRION =     -1    ionic relax: 0-MD 1-quasi-New 2-CG
   NFREE  =      0    steps in history (QN), initial steepest desc. (CG)
   ISIF   =      2    stress and relaxation
   IWAVPR =     10    prediction:  0-non 1-charg 2-wave 3-comb
   ISYM   =      2    0-nonsym 1-usesym 2-fastsym
   LCORR  =      T    Harris-Foulkes like correction to forces

   POTIM  = 0.5000    time-step for ionic-motion
   TEIN   =    0.0    initial temperature
   TEBEG  =    0.0;   TEEND  =   0.0 temperature during run
   SMASS  =  -3.00    Nose mass-parameter (am)
   estimated Nose-frequenzy (Omega)   =  0.10E-29 period in steps =****** mass=  -0.174E-27a.u.
   SCALEE = 1.0000    scale energy and forces
   NPACO  =    256;   APACO  = 16.0  distance and # of slots for P.C.
   PSTRESS=    0.0 pullay stress

  Mass of Ions in am
   POMASS =  28.09
  Ionic Valenz
   ZVAL   =   4.00
  Atomic Wigner-Seitz radii
   RWIGS  =  -1.00
  virtual crystal weights 
   VCA    =   1.00
   NELECT =       4.0000    total number of electrons
   NUPDOWN=      -1.0000    fix difference up-down

 DOS related values:
   EMIN   =  10.00;   EMAX   =-10.00  energy-range for DOS
   EFERMI =   0.00
   ISMEAR =     0;   SIGMA  =   0.10  broadening in eV -4-tet -1-fermi 0-gaus

 Electronic relaxation 2 (details)
   IALGO  =     38    algorithm
   LDIAG  =      T    sub-space diagonalisation (order eigenvalues)
   LSUBROT=      F    optimize rotation matrix (better conditioning)
   TURBO    =      0    0=normal 1=particle mesh
   IRESTART =      0    0=no restart 2=restart with 2 vectors
   NREBOOT  =      0    no. of reboots
   NMIN     =      0    reboot dimension
   EREF     =   0.00    reference energy to select bands
   IMIX   =      4    mixing-type and parameters
     AMIX     =   0.40;   BMIX     =  1.00
     AMIX_MAG =   1.60;   BMIX_MAG =  1.00
     AMIN     =   0.10
     WC   =   100.;   INIMIX=   1;  MIXPRE=   1;  MAXMIX= -45

 Intra band minimization:
   WEIMIN = 0.0000     energy-eigenvalue tresh-hold
   EBREAK =  0.42E-05  absolut break condition
   DEPER  =   0.30     relativ break condition  

   TIME   =   0.40     timestep for ELM

  volume/ion in A,a.u.               =      14.83       100.08
  Fermi-wavevector in a.u.,A,eV,Ry     =   1.057751  1.998860 15.222711  1.118838
  Thomas-Fermi vector in A             =   2.193036
 
 Write flags
   LWAVE  =      T    write WAVECAR
   LCHARG =      T    write CHGCAR
   LVTOT  =      F    write LOCPOT, total local potential
   LVHAR  =      F    write LOCPOT, Hartree potential only
   LELF   =      F    write electronic localiz. function (ELF)
   LORBIT =     11    0 simple, 1 ext, 2 COOP (PROOUT)


 Dipole corrections
   LMONO  =      F    monopole corrections only (constant potential shift)
   LDIPOL =      F    correct potential (dipole corrections)
   IDIPOL =      0    1-x, 2-y, 3-z, 4-all directions 
   EPSILON=  1.0000000 bulk dielectric constant

 Exchange correlation treatment:
   GGA     =    --    GGA type
   LEXCH   =     2    internal setting for exchange type
   VOSKOWN=      0    Vosko Wilk Nusair interpolation
   LHFCALC =     F    Hartree Fock is set to
   LHFONE  =     F    Hartree Fock one center treatment
   AEXX    =    0.0000 exact exchange contribution

 Linear response parameters
   LEPSILON=     F    determine dielectric tensor
   LRPA    =     F    only Hartree local field effects (RPA)
   LNABLA  =     F    use nabla operator in PAW spheres
   LVEL    =     F    velocity operator in full k-point grid
   LINTERFAST=   F  fast interpolation
   KINTER  =     0    interpolate to denser k-point grid
   CSHIFT  =0.1000    complex shift for real part using Kramers Kronig
   OMEGAMAX=  -1.0    maximum frequency
   DEG_THRESHOLD= 0.2000000E-02 threshold for treating states as degnerate
   RTIME   =    0.100 relaxation time in fs

 Orbital magnetization related:
   ORBITALMAG=     F  switch on orbital magnetization
   LCHIMAG   =     F  perturbation theory with respect to B field
   DQ        =  0.001000  dq finite difference perturbation B field



--------------------------------------------------------------------------------------------------------


 Static calculation
 charge density and potential remain constant during run
 non-spin polarized calculation
 Variant of blocked Davidson
 Davidson routine will perform the subspace rotation
 perform sub-space diagonalisation
    after iterative eigenvector-optimisation
 no mixing
 using additional bands            4
 reciprocal scheme for non local part
 use partial core corrections
 calculate Harris-corrections to forces 
   (improved forces if not selfconsistent)
 use of overlap-Matrix (Vanderbilt PP)
 Gauss-broadening in eV      SIGMA  =   0.10


--------------------------------------------------------------------------------------------------------


  energy-cutoff  :      240.00
  volume of cell :       14.83
      direct lattice vectors                 reciprocal lattice vectors
     1.950000000  1.950000000  0.000000000     0.256410256  0.256410256 -0.256410256
     0.000000000  1.950000000  1.950000000    -0.256410256  0.256410256  0.256410256
     1.950000000  0.000000000  1.950000000     0.256410256 -0.256410256  0.256410256

  length of vectors
     2.757716447  2.757716447  2.757716447     0.444115592  0.444115592  0.444115592


 
 k-points in units of 2pi/SCALE and weight: kpoints for bandstructure L-G-X-U K-G   
   0.50000000  0.50000000  0.50000000       0.025
   0.44444444  0.44444444  0.44444444       0.025
   0.38888889  0.38888889  0.38888889       0.025
   0.33333333  0.33333333  0.33333333       0.025
   0.27777778  0.27777778  0.27777778       0.025
   0.22222222  0.22222222  0.22222222       0.025
   0.16666667  0.16666667  0.16666667       0.025
   0.11111111  0.11111111  0.11111111       0.025
   0.05555556  0.05555556  0.05555556       0.025
   0.00000000  0.00000000  0.00000000       0.025
   0.00000000  0.00000000  0.00000000       0.025
   0.00000000  0.00000000  0.11111111       0.025
   0.00000000  0.00000000  0.22222222       0.025
   0.00000000  0.00000000  0.33333333       0.025
   0.00000000  0.00000000  0.44444444       0.025
   0.00000000  0.00000000  0.55555556       0.025
   0.00000000  0.00000000  0.66666667       0.025
   0.00000000  0.00000000  0.77777778       0.025
   0.00000000  0.00000000  0.88888889       0.025
   0.00000000  0.00000000  1.00000000       0.025
   0.00000000  0.00000000  1.00000000       0.025
   0.02777778  0.02777778  1.00000000       0.025
   0.05555556  0.05555556  1.00000000       0.025
   0.08333333  0.08333333  1.00000000       0.025
   0.11111111  0.11111111  1.00000000       0.025
   0.13888889  0.13888889  1.00000000       0.025
   0.16666667  0.16666667  1.00000000       0.025
   0.19444444  0.19444444  1.00000000       0.025
   0.22222222  0.22222222  1.00000000       0.025
   0.25000000  0.25000000  1.00000000       0.025
   0.00000000  0.75000000  0.75000000       0.025
   0.00000000  0.66666667  0.66666667       0.025
   0.00000000  0.58333333  0.58333333       0.025
   0.00000000  0.50000000  0.50000000       0.025
   0.00000000  0.41666667  0.41666667       0.025
   0.00000000  0.33333333  0.33333333       0.025
   0.00000000  0.25000000  0.25000000       0.025
   0.00000000  0.16666667  0.16666667       0.025
   0.00000000  0.08333333  0.08333333       0.025
   0.00000000  0.00000000  0.00000000       0.025
 
 k-points in reciprocal lattice and weights: kpoints for bandstructure L-G-X-U K-G   
   0.50000000  0.50000000  0.50000000       0.025
   0.44444444  0.44444444  0.44444444       0.025
   0.38888889  0.38888889  0.38888889       0.025
   0.33333333  0.33333333  0.33333333       0.025
   0.27777778  0.27777778  0.27777778       0.025
   0.22222222  0.22222222  0.22222222       0.025
   0.16666667  0.16666667  0.16666667       0.025
   0.11111111  0.11111111  0.11111111       0.025
   0.05555556  0.05555556  0.05555556       0.025
   0.00000000  0.00000000  0.00000000       0.025
   0.00000000  0.00000000  0.00000000       0.025
   0.00000000  0.05555556  0.05555556       0.025
   0.00000000  0.11111111  0.11111111       0.025
   0.00000000  0.16666667  0.16666667       0.025
   0.00000000  0.22222222  0.22222222       0.025
   0.00000000  0.27777778  0.27777778       0.025
   0.00000000  0.33333333  0.33333333       0.025
   0.00000000  0.38888889  0.38888889       0.025
   0.00000000  0.44444444  0.44444444       0.025
   0.00000000  0.50000000  0.50000000       0.025
   0.00000000  0.50000000  0.50000000       0.025
   0.02777778  0.51388889  0.51388889       0.025
   0.05555556  0.52777778  0.52777778       0.025
   0.08333333  0.54166667  0.54166667       0.025
   0.11111111  0.55555556  0.55555556       0.025
   0.13888889  0.56944444  0.56944444       0.025
   0.16666667  0.58333333  0.58333333       0.025
   0.19444444  0.59722222  0.59722222       0.025
   0.22222222  0.61111111  0.61111111       0.025
   0.25000000  0.62500000  0.62500000       0.025
   0.37500000  0.75000000  0.37500000       0.025
   0.33333333  0.66666667  0.33333333       0.025
   0.29166667  0.58333333  0.29166667       0.025
   0.25000000  0.50000000  0.25000000       0.025
   0.20833333  0.41666667  0.20833333       0.025
   0.16666667  0.33333333  0.16666667       0.025
   0.12500000  0.25000000  0.12500000       0.025
   0.08333333  0.16666667  0.08333333       0.025
   0.04166667  0.08333333  0.04166667       0.025
   0.00000000  0.00000000  0.00000000       0.025
 
 position of ions in fractional coordinates (direct lattice) 
   0.00000000  0.00000000  0.00000000
 
 position of ions in cartesian coordinates  (Angst):
   0.00000000  0.00000000  0.00000000
 


--------------------------------------------------------------------------------------------------------


 k-point  1 :   0.5000 0.5000 0.5000  plane waves:     120
 k-point  2 :   0.4444 0.4444 0.4444  plane waves:     123
 k-point  3 :   0.3889 0.3889 0.3889  plane waves:     123
 k-point  4 :   0.3333 0.3333 0.3333  plane waves:     126
 k-point  5 :   0.2778 0.2778 0.2778  plane waves:     132
 k-point  6 :   0.2222 0.2222 0.2222  plane waves:     132
 k-point  7 :   0.1667 0.1667 0.1667  plane waves:     129
 k-point  8 :   0.1111 0.1111 0.1111  plane waves:     128
 k-point  9 :   0.0556 0.0556 0.0556  plane waves:     128
 k-point 10 :   0.0000 0.0000 0.0000  plane waves:     137
 k-point 11 :   0.0000 0.0000 0.0000  plane waves:     137
 k-point 12 :   0.0000 0.0556 0.0556  plane waves:     125
 k-point 13 :   0.0000 0.1111 0.1111  plane waves:     125
 k-point 14 :   0.0000 0.1667 0.1667  plane waves:     129
 k-point 15 :   0.0000 0.2222 0.2222  plane waves:     129
 k-point 16 :   0.0000 0.2778 0.2778  plane waves:     129
 k-point 17 :   0.0000 0.3333 0.3333  plane waves:     129
 k-point 18 :   0.0000 0.3889 0.3889  plane waves:     121
 k-point 19 :   0.0000 0.4444 0.4444  plane waves:     117
 k-point 20 :   0.0000 0.5000 0.5000  plane waves:     116
 k-point 21 :   0.0000 0.5000 0.5000  plane waves:     116
 k-point 22 :   0.0278 0.5139 0.5139  plane waves:     116
 k-point 23 :   0.0556 0.5278 0.5278  plane waves:     116
 k-point 24 :   0.0833 0.5417 0.5417  plane waves:     116
 k-point 25 :   0.1111 0.5556 0.5556  plane waves:     120
 k-point 26 :   0.1389 0.5694 0.5694  plane waves:     120
 k-point 27 :   0.1667 0.5833 0.5833  plane waves:     122
 k-point 28 :   0.1944 0.5972 0.5972  plane waves:     120
 k-point 29 :   0.2222 0.6111 0.6111  plane waves:     120
 k-point 30 :   0.2500 0.6250 0.6250  plane waves:     126
 k-point 31 :   0.3750 0.7500 0.3750  plane waves:     126
 k-point 32 :   0.3333 0.6667 0.3333  plane waves:     122
 k-point 33 :   0.2917 0.5833 0.2917  plane waves:     122
 k-point 34 :   0.2500 0.5000 0.2500  plane waves:     125
 k-point 35 :   0.2083 0.4167 0.2083  plane waves:     129
 k-point 36 :   0.1667 0.3333 0.1667  plane waves:     133
 k-point 37 :   0.1250 0.2500 0.1250  plane waves:     133
 k-point 38 :   0.0833 0.1667 0.0833  plane waves:     127
 k-point 39 :   0.0417 0.0833 0.0417  plane waves:     127
 k-point 40 :   0.0000 0.0000 0.0000  plane waves:     137

 maximum and minimum number of plane-waves per node :       137      116

 maximum number of plane-waves:       137
 maximum index in each direction: 
   IXMAX=    3   IYMAX=    3   IZMAX=    3
   IXMIN=   -3   IYMIN=   -4   IZMIN=   -4

 WARNING: aliasing errors must be expected set NGX to  14 to avoid them
 WARNING: aliasing errors must be expected set NGY to  16 to avoid them
 WARNING: aliasing errors must be expected set NGZ to  16 to avoid them
 aliasing errors are usually negligible using standard VASP settings
 and one can safely disregard these warnings

 serial   3D FFT for wavefunctions
 parallel 3D FFT for charge:
    minimum data exchange during FFTs selected (reduces bandwidth)


 total amount of memory used by VASP on root node    31658. kBytes
========================================================================

   base      :      30000. kBytes
   nonl-proj :        352. kBytes
   fftplans  :        296. kBytes
   grid      :        451. kBytes
   one-center:          3. kBytes
   wavefun   :        556. kBytes
 
     INWAV:  cpu time    0.00: real time    0.00
 initial charge density was supplied:
 number of electron       4.0000011 magnetization 
 keeping initial charge density in first step


--------------------------------------------------------------------------------------------------------


 Maximum index for augmentation-charges         2171 (set IRDMAX)


--------------------------------------------------------------------------------------------------------


 First call to EWALD:  gamma=   0.721
 Maximum number of real-space cells 3x 3x 3
 Maximum number of reciprocal cells 3x 3x 3

 FEWALD executed in parallel
    FEWALD:  cpu time    0.00: real time    0.00


----------------------------------------- Iteration    1(   1)  ---------------------------------------


    POTLOK:  cpu time    0.00: real time    0.00
    SETDIJ:  cpu time    0.00: real time    0.00
     EDDAV:  cpu time    0.05: real time    0.05
       DOS:  cpu time    0.00: real time    0.00
    --------------------------------------------
      LOOP:  cpu time    0.05: real time    0.05

 eigenvalue-minimisations  :   570
 total energy-change (2. order) :-0.4454081E+01  (-0.1141487E+03)
 number of electron       4.0000011 magnetization 
 augmentation part        4.0000011 magnetization 

 Free energy of the ion-electron system (eV)
  ---------------------------------------------------
  alpha Z        PSCENC =         1.59850770
  Ewald energy   TEWEN  =      -135.42777035
  -Hartree energ DENC   =        -0.53019300
  -exchange      EXHF   =         0.00000000
  -V(xc)+E(xc)   XCENC  =        -8.82565977
  PAW double counting   =        34.71333461      -17.31339017
  entropy T*S    EENTRO =        -0.00378293
  eigenvalues    EBANDS =        17.90725278
  atomic energy  EATOM  =       103.42762056
  ---------------------------------------------------
  free energy    TOTEN  =        -4.45408057 eV

  energy without entropy =       -4.45029764  energy(sigma->0) =       -4.45218911


--------------------------------------------------------------------------------------------------------




----------------------------------------- Iteration    1(   2)  ---------------------------------------


     EDDAV:  cpu time    0.06: real time    0.06
       DOS:  cpu time    0.00: real time    0.00
    --------------------------------------------
      LOOP:  cpu time    0.06: real time    0.06

 eigenvalue-minimisations  :   690
 total energy-change (2. order) :-0.1505194E+01  (-0.1206800E+01)
 number of electron       4.0000011 magnetization 
 augmentation part        4.0000011 magnetization 

 Free energy of the ion-electron system (eV)
  ---------------------------------------------------
  alpha Z        PSCENC =         1.59850770
  Ewald energy   TEWEN  =      -135.42777035
  -Hartree energ DENC   =        -0.53019300
  -exchange      EXHF   =         0.00000000
  -V(xc)+E(xc)   XCENC  =        -8.82565977
  PAW double counting   =        34.71333461      -17.31339017
  entropy T*S    EENTRO =        -0.00030465
  eigenvalues    EBANDS =        16.39858003
  atomic energy  EATOM  =       103.42762056
  ---------------------------------------------------
  free energy    TOTEN  =        -5.95927504 eV

  energy without entropy =       -5.95897039  energy(sigma->0) =       -5.95912271


--------------------------------------------------------------------------------------------------------




----------------------------------------- Iteration    1(   3)  ---------------------------------------


     EDDAV:  cpu time    0.05: real time    0.05
       DOS:  cpu time    0.00: real time    0.00
    --------------------------------------------
      LOOP:  cpu time    0.05: real time    0.05

 eigenvalue-minimisations  :   546
 total energy-change (2. order) :-0.1132987E-01  (-0.1132854E-01)
 number of electron       4.0000011 magnetization 
 augmentation part        4.0000011 magnetization 

 Free energy of the ion-electron system (eV)
  ---------------------------------------------------
  alpha Z        PSCENC =         1.59850770
  Ewald energy   TEWEN  =      -135.42777035
  -Hartree energ DENC   =        -0.53019300
  -exchange      EXHF   =         0.00000000
  -V(xc)+E(xc)   XCENC  =        -8.82565977
  PAW double counting   =        34.71333461      -17.31339017
  entropy T*S    EENTRO =        -0.00027455
  eigenvalues    EBANDS =        16.38722006
  atomic energy  EATOM  =       103.42762056
  ---------------------------------------------------
  free energy    TOTEN  =        -5.97060491 eV

  energy without entropy =       -5.97033036  energy(sigma->0) =       -5.97046764


--------------------------------------------------------------------------------------------------------




----------------------------------------- Iteration    1(   4)  ---------------------------------------


     EDDAV:  cpu time    0.06: real time    0.06
       DOS:  cpu time    0.00: real time    0.00
    --------------------------------------------
      LOOP:  cpu time    0.06: real time    0.07

 eigenvalue-minimisations  :   702
 total energy-change (2. order) :-0.1178484E-04  (-0.1178559E-04)
 number of electron       4.0000011 magnetization 
 augmentation part        4.0000011 magnetization 

 Free energy of the ion-electron system (eV)
  ---------------------------------------------------
  alpha Z        PSCENC =         1.59850770
  Ewald energy   TEWEN  =      -135.42777035
  -Hartree energ DENC   =        -0.53019300
  -exchange      EXHF   =         0.00000000
  -V(xc)+E(xc)   XCENC  =        -8.82565977
  PAW double counting   =        34.71333461      -17.31339017
  entropy T*S    EENTRO =        -0.00027459
  eigenvalues    EBANDS =        16.38720831
  atomic energy  EATOM  =       103.42762056
  ---------------------------------------------------
  free energy    TOTEN  =        -5.97061670 eV

  energy without entropy =       -5.97034211  energy(sigma->0) =       -5.97047940


--------------------------------------------------------------------------------------------------------




----------------------------------------- Iteration    1(   5)  ---------------------------------------


     EDDAV:  cpu time    0.04: real time    0.04
       DOS:  cpu time    0.00: real time    0.00
    --------------------------------------------
      LOOP:  cpu time    0.04: real time    0.05

 eigenvalue-minimisations  :   480
 total energy-change (2. order) :-0.2276117E-07  (-0.2183460E-07)
 number of electron       4.0000011 magnetization 
 augmentation part        4.0000011 magnetization 

 Free energy of the ion-electron system (eV)
  ---------------------------------------------------
  alpha Z        PSCENC =         1.59850770
  Ewald energy   TEWEN  =      -135.42777035
  -Hartree energ DENC   =        -0.53019300
  -exchange      EXHF   =         0.00000000
  -V(xc)+E(xc)   XCENC  =        -8.82565977
  PAW double counting   =        34.71333461      -17.31339017
  entropy T*S    EENTRO =        -0.00027459
  eigenvalues    EBANDS =        16.38720829
  atomic energy  EATOM  =       103.42762056
  ---------------------------------------------------
  free energy    TOTEN  =        -5.97061672 eV

  energy without entropy =       -5.97034213  energy(sigma->0) =       -5.97047943


--------------------------------------------------------------------------------------------------------




----------------------------------------- Iteration    1(   6)  ---------------------------------------


     EDDAV:  cpu time    0.04: real time    0.04
       DOS:  cpu time    0.00: real time    0.00
    --------------------------------------------
      LOOP:  cpu time    0.04: real time    0.04

 eigenvalue-minimisations  :   444
 total energy-change (2. order) :-0.1587594E-08  (-0.1677036E-08)
 number of electron       4.0000011 magnetization 
 augmentation part        4.0000011 magnetization 

 Free energy of the ion-electron system (eV)
  ---------------------------------------------------
  alpha Z        PSCENC =         1.59850770
  Ewald energy   TEWEN  =      -135.42777035
  -Hartree energ DENC   =        -0.53019300
  -exchange      EXHF   =         0.00000000
  -V(xc)+E(xc)   XCENC  =        -8.82565977
  PAW double counting   =        34.71333461      -17.31339017
  entropy T*S    EENTRO =        -0.00027459
  eigenvalues    EBANDS =        16.38720828
  atomic energy  EATOM  =       103.42762056
  ---------------------------------------------------
  free energy    TOTEN  =        -5.97061672 eV

  energy without entropy =       -5.97034213  energy(sigma->0) =       -5.97047943


--------------------------------------------------------------------------------------------------------




 average (electrostatic) potential at core
  the test charge radii are     0.9892
  (the norm of the test charge is              1.0000)
       1 -81.7608
 
 
 
 E-fermi :  12.6988     XC(G=0): -11.1660     alpha+bet :-16.3192


 k-point     1 :       0.5000    0.5000    0.5000
  band No.  band energies     occupation 
      1       2.2867      2.00000
      2       3.0659      2.00000
      3      18.0249      0.00000
      4      18.0249      0.00000
      5      20.7056      0.00000
      6      20.7056      0.00000

 k-point     2 :       0.4444    0.4444    0.4444
  band No.  band energies     occupation 
      1       1.1715      2.00000
      2       4.3387      2.00000
      3      18.0192      0.00000
      4      18.0192      0.00000
      5      20.8589      0.00000
      6      20.8589      0.00000

 k-point     3 :       0.3889    0.3889    0.3889
  band No.  band energies     occupation 
      1      -0.0977      2.00000
      2       6.0816      2.00000
      3      18.0266      0.00000
      4      18.0266      0.00000
      5      21.2910      0.00000
      6      21.2910      0.00000

 k-point     4 :       0.3333    0.3333    0.3333
  band No.  band energies     occupation 
      1      -1.2180      2.00000
      2       7.9861      2.00000
      3      18.0939      0.00000
      4      18.0939      0.00000
      5      21.9405      0.00000
      6      21.9405      0.00000

 k-point     5 :       0.2778    0.2778    0.2778
  band No.  band energies     occupation 
      1      -2.1738      2.00000
      2      10.0296      2.00000
      3      18.2531      0.00000
      4      18.2531      0.00000
      5      22.6708      0.00000
      6      22.7280      0.00000

 k-point     6 :       0.2222    0.2222    0.2222
  band No.  band energies     occupation 
      1      -2.9591      2.00000
      2      12.1986      2.00000
      3      18.5341      0.00000
      4      18.5341      0.00000
      5      22.7398      0.00000
      6      23.4946      0.00000

 k-point     7 :       0.1667    0.1667    0.1667
  band No.  band energies     occupation 
      1      -3.5725      2.00000
      2      14.4677      0.00000
      3      18.9413      0.00000
      4      18.9413      0.00000
      5      22.8272      0.00000
      6      23.7582      0.00000

 k-point     8 :       0.1111    0.1111    0.1111
  band No.  band energies     occupation 
      1      -4.0118      2.00000
      2      16.7880      0.00000
      3      19.4697      0.00000
      4      19.4697      0.00000
      5      22.8234      0.00000
      6      23.1394      0.00000

 k-point     9 :       0.0556    0.0556    0.0556
  band No.  band energies     occupation 
      1      -4.2760      2.00000
      2      19.0173      0.00000
      3      20.0783      0.00000
      4      20.0783      0.00000
      5      22.2718      0.00000
      6      22.2719      0.00000

 k-point    10 :       0.0000    0.0000    0.0000
  band No.  band energies     occupation 
      1      -4.3644      2.00000
      2      20.4797      0.00000
      3      20.4799      0.00000
      4      20.4799      0.00000
      5      21.7250      0.00000
      6      21.7252      0.00000

 k-point    11 :       0.0000    0.0000    0.0000
  band No.  band energies     occupation 
      1      -4.3644      2.00000
      2      20.4797      0.00000
      3      20.4799      0.00000
      4      20.4799      0.00000
      5      21.7251      0.00000
      6      21.7252      0.00000

 k-point    12 :       0.0000    0.0556    0.0556
  band No.  band energies     occupation 
      1      -4.2465      2.00000
      2      19.3287      0.00000
      3      19.3288      0.00000
      4      20.2015      0.00000
      5      21.1084      0.00000
      6      23.0757      0.00000

 k-point    13 :       0.0000    0.1111    0.1111
  band No.  band energies     occupation 
      1      -3.8944      2.00000
      2      17.8787      0.00000
      3      17.8789      0.00000
      4      19.4383      0.00000
      5      19.8029      0.00000
      6      24.6785      0.00000

 k-point    14 :       0.0000    0.1667    0.1667
  band No.  band energies     occupation 
      1      -3.3089      2.00000
      2      16.5765      0.00000
      3      16.5766      0.00000
      4      18.2699      0.00000
      5      18.4549      0.00000
      6      21.9458      0.00000

 k-point    15 :       0.0000    0.2222    0.2222
  band No.  band energies     occupation 
      1      -2.4920      2.00000
      2      15.4611      0.00000
      3      15.4612      0.00000
      4      16.5651      0.00000
      5      17.2444      0.00000
      6      19.7952      0.00000

 k-point    16 :       0.0000    0.2778    0.2778
  band No.  band energies     occupation 
      1      -1.4456      2.00000
      2      14.2906      0.00000
      3      14.5383      0.00000
      4      14.5385      0.00000
      5      16.2047      0.00000
      6      18.4144      0.00000

 k-point    17 :       0.0000    0.3333    0.3333
  band No.  band energies     occupation 
      1      -0.1752      2.00000
      2      11.8118      2.00000
      3      13.8205      0.00000
      4      13.8207      0.00000
      5      15.4018      0.00000
      6      17.5195      0.00000

 k-point    18 :       0.0000    0.3889    0.3889
  band No.  band energies     occupation 
      1       1.3157      2.00000
      2       9.3830      2.00000
      3      13.3070      0.00000
      4      13.3072      0.00000
      5      14.8261      0.00000
      6      16.9349      0.00000

 k-point    19 :       0.0000    0.4444    0.4444
  band No.  band energies     occupation 
      1       3.0114      2.00000
      2       7.1038      2.00000
      3      12.9977      0.00002
      4      12.9978      0.00002
      5      14.4775      0.00000
      6      16.5900      0.00000

 k-point    20 :       0.0000    0.5000    0.5000
  band No.  band energies     occupation 
      1       4.6159      2.00000
      2       5.3037      2.00000
      3      12.8945      0.00566
      4      12.8946      0.00563
      5      14.3611      0.00000
      6      16.4802      0.00000

 k-point    21 :       0.0000    0.5000    0.5000
  band No.  band energies     occupation 
      1       4.6159      2.00000
      2       5.3037      2.00000
      3      12.8945      0.00566
      4      12.8946      0.00563
      5      14.3611      0.00000
      6      16.4802      0.00000

 k-point    22 :       0.0278    0.5139    0.5139
  band No.  band energies     occupation 
      1       4.6297      2.00000
      2       5.3172      2.00000
      3      12.5225      1.98735
      4      12.9074      0.00318
      5      14.6260      0.00000
      6      16.6240      0.00000

 k-point    23 :       0.0556    0.5278    0.5278
  band No.  band energies     occupation 
      1       4.6713      2.00000
      2       5.3575      2.00000
      3      11.7946      2.00000
      4      12.9457      0.00048
      5      15.0179      0.00000
      6      17.0700      0.00000

 k-point    24 :       0.0833    0.5417    0.5417
  band No.  band energies     occupation 
      1       4.7406      2.00000
      2       5.4241      2.00000
      3      10.9835      2.00000
      4      13.0095      0.00001
      5      15.3014      0.00000
      6      17.7806      0.00000

 k-point    25 :       0.1111    0.5556    0.5556
  band No.  band energies     occupation 
      1       4.8375      2.00000
      2       5.5159      2.00000
      3      10.1567      2.00000
      4      13.0988      0.00000
      5      15.5107      0.00000
      6      18.6546      0.00000

 k-point    26 :       0.1389    0.5694    0.5694
  band No.  band energies     occupation 
      1       4.9622      2.00000
      2       5.6308      2.00000
      3       9.3378      2.00000
      4      13.2136      0.00000
      5      15.6973      0.00000
      6      19.6172      0.00000

 k-point    27 :       0.1667    0.5833    0.5833
  band No.  band energies     occupation 
      1       5.1146      2.00000
      2       5.7633      2.00000
      3       8.5397      2.00000
      4      13.3535      0.00000
      5      15.8873      0.00000
      6      20.6279      0.00000

 k-point    28 :       0.1944    0.5972    0.5972
  band No.  band energies     occupation 
      1       5.2949      2.00000
      2       5.8981      2.00000
      3       7.7867      2.00000
      4      13.5187      0.00000
      5      16.0960      0.00000
      6      21.6858      0.00000

 k-point    29 :       0.2222    0.6111    0.6111
  band No.  band energies     occupation 
      1       5.5027      2.00000
      2       5.9722      2.00000
      3       7.1417      2.00000
      4      13.7089      0.00000
      5      16.3214      0.00000
      6      22.7504      0.00000

 k-point    30 :       0.2500    0.6250    0.6250
  band No.  band energies     occupation 
      1       5.7380      2.00000
      2       5.7576      2.00000
      3       6.8336      2.00000
      4      13.9239      0.00000
      5      16.5611      0.00000
      6      23.8221      0.00000

 k-point    31 :       0.3750    0.7500    0.3750
  band No.  band energies     occupation 
      1       5.7380      2.00000
      2       5.7576      2.00000
      3       6.8336      2.00000
      4      13.9239      0.00000
      5      16.5611      0.00000
      6      23.8221      0.00000

 k-point    32 :       0.3333    0.6667    0.3333
  band No.  band energies     occupation 
      1       3.8840      2.00000
      2       6.6100      2.00000
      3       7.4473      2.00000
      4      14.7167      0.00000
      5      17.4560      0.00000
      6      27.0003      0.00000

 k-point    33 :       0.2917    0.5833    0.2917
  band No.  band energies     occupation 
      1       2.0021      2.00000
      2       7.7290      2.00000
      3       8.5323      2.00000
      4      15.7194      0.00000
      5      18.5722      0.00000
      6      26.9648      0.00000

 k-point    34 :       0.2500    0.5000    0.2500
  band No.  band energies     occupation 
      1       0.3376      2.00000
      2       9.0907      2.00000
      3       9.8625      2.00000
      4      16.9070      0.00000
      5      19.8947      0.00000
      6      25.6817      0.00000

 k-point    35 :       0.2083    0.4167    0.2083
  band No.  band energies     occupation 
      1      -1.0860      2.00000
      2      10.6921      2.00000
      3      11.4062      2.00000
      4      18.2158      0.00000
      5      21.3943      0.00000
      6      24.6888      0.00000

 k-point    36 :       0.1667    0.3333    0.1667
  band No.  band energies     occupation 
      1      -2.2602      2.00000
      2      12.5244      1.98636
      3      13.1385      0.00000
      4      19.4889      0.00000
      5      23.0148      0.00000
      6      23.7881      0.00000

 k-point    37 :       0.1250    0.2500    0.1250
  band No.  band energies     occupation 
      1      -3.1778      2.00000
      2      14.5660      0.00000
      3      15.0241      0.00000
      4      20.3232      0.00000
      5      22.8999      0.00000
      6      23.8752      0.00000

 k-point    38 :       0.0833    0.1667    0.0833
  band No.  band energies     occupation 
      1      -3.8359      2.00000
      2      16.7792      0.00000
      3      17.0183      0.00000
      4      20.5480      0.00000
      5      22.2649      0.00000
      6      23.2053      0.00000

 k-point    39 :       0.0417    0.0833    0.0417
  band No.  band energies     occupation 
      1      -4.2319      2.00000
      2      18.9964      0.00000
      3      19.0199      0.00000
      4      20.5138      0.00000
      5      21.8821      0.00000
      6      22.5172      0.00000

 k-point    40 :       0.0000    0.0000    0.0000
  band No.  band energies     occupation 
      1      -4.3644      2.00000
      2      20.4797      0.00000
      3      20.4799      0.00000
      4      20.4799      0.00000
      5      21.7251      0.00000
      6      21.7252      0.00000


--------------------------------------------------------------------------------------------------------


 soft charge-density along one line, spin component           1
         0         1         2         3         4         5         6         7         8         9
 total charge-density along one line
 
 pseudopotential strength for first ion, spin component:           1
 19.010  -0.003  -0.000  -0.000   0.000   0.000   0.000  -0.000
 -0.003   0.006   0.000   0.000  -0.000  -0.000  -0.000   0.000
 -0.000   0.000   4.280  -0.000  -0.000  -0.006   0.000   0.000
 -0.000   0.000  -0.000   4.280  -0.000   0.000  -0.006   0.000
  0.000  -0.000  -0.000  -0.000   4.280   0.000   0.000  -0.006
  0.000  -0.000  -0.006   0.000   0.000   0.005  -0.000  -0.000
  0.000  -0.000   0.000  -0.006   0.000  -0.000   0.005  -0.000
 -0.000   0.000   0.000   0.000  -0.006  -0.000  -0.000   0.005
 total augmentation occupancy for first ion, spin component:           1
  2.000   0.000   0.000   0.000   0.000   0.000   0.000   0.000
  0.000   0.000   0.000   0.000   0.000   0.000   0.000   0.000
  0.000   0.000   0.667   0.000   0.000   0.000   0.000   0.000
  0.000   0.000   0.000   0.667   0.000   0.000   0.000   0.000
  0.000   0.000   0.000   0.000   0.667   0.000   0.000   0.000
  0.000   0.000   0.000   0.000   0.000   0.000   0.000   0.000
  0.000   0.000   0.000   0.000   0.000   0.000   0.000   0.000
  0.000   0.000   0.000   0.000   0.000   0.000   0.000   0.000


------------------------ aborting loop because EDIFF is reached ----------------------------------------


 


 total charge     
 
# of ion     s       p       d       tot
----------------------------------------
  1        0.900   0.677   0.000   1.577
 
    CHARGE:  cpu time    0.00: real time    0.00
    FORLOC:  cpu time    0.00: real time    0.00
    FORNL :  cpu time    0.00: real time    0.00
    STRESS:  cpu time    0.02: real time    0.03
    FORCOR:  cpu time    0.00: real time    0.00
    FORHAR:  cpu time    0.00: real time    0.00
    OFIELD:  cpu time    0.00: real time    0.00

  FORCE on cell =-STRESS in cart. coord.  units (eV):
  Direction    XX          YY          ZZ          XY          YZ          ZX
  --------------------------------------------------------------------------------------
  Alpha Z     1.59851     1.59851     1.59851
  Ewald     -45.14259   -45.14259   -45.14259    -0.00000     0.00000    -0.00000
  Hartree     0.17728     0.17728     0.17728    -0.00000    -0.00000    -0.00000
  E(xc)     -13.03846   -13.03846   -13.03846    -0.00000    -0.00000     0.00000
  Local      -5.92257    -5.92257    -5.92257     0.00004     0.00004     0.00004
  n-local    41.25413    41.60895    38.15611    -0.07529    -0.44763    -0.24496
  augment    -6.89778    -6.89778    -6.89778    -0.00005    -0.00005    -0.00005
  Kinetic    25.27096    18.48903    40.89941    10.72759     7.89764     3.51052
  Fock        0.00000     0.00000     0.00000     0.00000     0.00000     0.00000
  -------------------------------------------------------------------------------------
  Total      -0.66609    -0.66609    -0.66609     0.00000    -0.00000    -0.00000
  in kB     -71.96302   -71.96302   -71.96302     0.00000    -0.00000    -0.00000
  external pressure =      -71.96 kB  Pullay stress =        0.00 kB


 VOLUME and BASIS-vectors are now :
 -----------------------------------------------------------------------------
  energy-cutoff  :      240.00
  volume of cell :       14.83
      direct lattice vectors                 reciprocal lattice vectors
     1.950000000  1.950000000  0.000000000     0.256410256  0.256410256 -0.256410256
     0.000000000  1.950000000  1.950000000    -0.256410256  0.256410256  0.256410256
     1.950000000  0.000000000  1.950000000     0.256410256 -0.256410256  0.256410256

  length of vectors
     2.757716447  2.757716447  2.757716447     0.444115592  0.444115592  0.444115592


 FORCES acting on ions
    electron-ion (+dipol)            ewald-force                    non-local-force                 convergence-correction
 -----------------------------------------------------------------------------------------------
   0.887E-15 -.342E-15 0.336E-16   0.262E-15 0.141E-15 0.191E-15   0.000E+00 0.000E+00 0.000E+00   -.288E-16 -.370E-16 0.366E-16
 -----------------------------------------------------------------------------------------------
   0.887E-15 -.342E-15 0.336E-16   0.262E-15 0.141E-15 0.191E-15   0.000E+00 0.000E+00 0.000E+00   -.288E-16 -.370E-16 0.366E-16
 
 
 POSITION                                       TOTAL-FORCE (eV/Angst)
 -----------------------------------------------------------------------------------
      0.00000      0.00000      0.00000        -0.000000      0.000000     -0.000000
 -----------------------------------------------------------------------------------
    total drift:                                0.000000     -0.000000      0.000000


--------------------------------------------------------------------------------------------------------



  FREE ENERGIE OF THE ION-ELECTRON SYSTEM (eV)
  ---------------------------------------------------
  free  energy   TOTEN  =        -5.97061672 eV

  energy  without entropy=       -5.97034213  energy(sigma->0) =       -5.97047943
 


--------------------------------------------------------------------------------------------------------


    POTLOK:  cpu time    0.00: real time    0.00


--------------------------------------------------------------------------------------------------------


 writing wavefunctions
     LOOP+:  cpu time    0.36: real time    0.39
    4ORBIT:  cpu time    0.00: real time    0.00
 


 total charge     
 
# of ion     s       p       d       tot
----------------------------------------
  1        0.900   0.677   0.000   1.577
 

 total amount of memory used by VASP on root node    31658. kBytes
========================================================================

   base      :      30000. kBytes
   nonl-proj :        352. kBytes
   fftplans  :        296. kBytes
   grid      :        451. kBytes
   one-center:          3. kBytes
   wavefun   :        556. kBytes
 
  
  
 General timing and accounting informations for this job:
 ========================================================
  
                  Total CPU time used (sec):        0.464
                            User time (sec):        0.436
                          System time (sec):        0.028
                         Elapsed time (sec):        0.544
  
                   Maximum memory used (kb):       30872.
                   Average memory used (kb):           0.
  
                          Minor page faults:         3786
                          Major page faults:            0
                 Voluntary context switches:          277
