PROCAR lm decomposed
# of k-points:   40         # of bands:   6         # of ions:   1

 k-point    1 :    0.50000000 0.50000000 0.50000000     weight = 0.02500000

band   1 # energy    2.28672560 # occ.  2.00000000
 
ion      s     py     pz     px    dxy    dyz    dz2    dxz    dx2    tot
  1  0.460  0.000  0.000  0.000  0.000  0.000  0.000  0.000  0.000  0.460
 
band   2 # energy    3.06592531 # occ.  2.00000000
 
ion      s     py     pz     px    dxy    dyz    dz2    dxz    dx2    tot
  1  0.000  0.107  0.107  0.107  0.000  0.000  0.000  0.000  0.000  0.321
 
band   3 # energy   18.02490903 # occ.  0.00000000
 
ion      s     py     pz     px    dxy    dyz    dz2    dxz    dx2    tot
  1  0.000  0.418  0.107  0.103  0.000  0.000  0.000  0.000  0.000  0.628
 
band   4 # energy   18.02490906 # occ.  0.00000000
 
ion      s     py     pz     px    dxy    dyz    dz2    dxz    dx2    tot
  1  0.000  0.000  0.312  0.316  0.000  0.000  0.000  0.000  0.000  0.628
 
band   5 # energy   20.70564751 # occ.  0.00000000
 
ion      s     py     pz     px    dxy    dyz    dz2    dxz    dx2    tot
  1  0.000  0.000  0.000  0.000  0.000  0.000  0.000  0.000  0.000  0.000
 
band   6 # energy   20.70564764 # occ.  0.00000000
 
ion      s     py     pz     px    dxy    dyz    dz2    dxz    dx2    tot
  1  0.000  0.000  0.000  0.000  0.000  0.000  0.000  0.000  0.000  0.000
 

 k-point    2 :    0.44444444 0.44444444 0.44444444     weight = 0.02500000

band   1 # energy    1.17150269 # occ.  2.00000000
 
ion      s     py     pz     px    dxy    dyz    dz2    dxz    dx2    tot
  1  0.313  0.032  0.032  0.032  0.000  0.000  0.000  0.000  0.000  0.409
 
band   2 # energy    4.33871190 # occ.  2.00000000
 
ion      s     py     pz     px    dxy    dyz    dz2    dxz    dx2    tot
  1  0.145  0.075  0.075  0.075  0.000  0.000  0.000  0.000  0.000  0.371
 
band   3 # energy   18.01918795 # occ.  0.00000000
 
ion      s     py     pz     px    dxy    dyz    dz2    dxz    dx2    tot
  1  0.000  0.408  0.099  0.105  0.000  0.000  0.000  0.000  0.000  0.612
 
band   4 # energy   18.01918797 # occ.  0.00000000
 
ion      s     py     pz     px    dxy    dyz    dz2    dxz    dx2    tot
  1  0.000  0.000  0.309  0.303  0.000  0.000  0.000  0.000  0.000  0.612
 
band   5 # energy   20.85889646 # occ.  0.00000000
 
ion      s     py     pz     px    dxy    dyz    dz2    dxz    dx2    tot
  1  0.000  0.002  0.009  0.004  0.000  0.000  0.000  0.000  0.000  0.015
 
band   6 # energy   20.85889718 # occ.  0.00000000
 
ion      s     py     pz     px    dxy    dyz    dz2    dxz    dx2    tot
  1  0.000  0.008  0.001  0.006  0.000  0.000  0.000  0.000  0.000  0.015
 

 k-point    3 :    0.38888889 0.38888889 0.38888889     weight = 0.02500000

band   1 # energy   -0.09768852 # occ.  2.00000000
 
ion      s     py     pz     px    dxy    dyz    dz2    dxz    dx2    tot
  1  0.312  0.030  0.030  0.030  0.000  0.000  0.000  0.000  0.000  0.401
 
band   2 # energy    6.08155269 # occ.  2.00000000
 
ion      s     py     pz     px    dxy    dyz    dz2    dxz    dx2    tot
  1  0.144  0.077  0.077  0.077  0.000  0.000  0.000  0.000  0.000  0.374
 
band   3 # energy   18.02657446 # occ.  0.00000000
 
ion      s     py     pz     px    dxy    dyz    dz2    dxz    dx2    tot
  1  0.000  0.385  0.111  0.083  0.000  0.000  0.000  0.000  0.000  0.578
 
band   4 # energy   18.02657449 # occ.  0.00000000
 
ion      s     py     pz     px    dxy    dyz    dz2    dxz    dx2    tot
  1  0.000  0.001  0.275  0.303  0.000  0.000  0.000  0.000  0.000  0.578
 
band   5 # energy   21.29104932 # occ.  0.00000000
 
ion      s     py     pz     px    dxy    dyz    dz2    dxz    dx2    tot
  1  0.000  0.026  0.019  0.001  0.000  0.000  0.000  0.000  0.000  0.046
 
band   6 # energy   21.29104942 # occ.  0.00000000
 
ion      s     py     pz     px    dxy    dyz    dz2    dxz    dx2    tot
  1  0.000  0.004  0.012  0.030  0.000  0.000  0.000  0.000  0.000  0.046
 

 k-point    4 :    0.33333333 0.33333333 0.33333333     weight = 0.02500000

band   1 # energy   -1.21801798 # occ.  2.00000000
 
ion      s     py     pz     px    dxy    dyz    dz2    dxz    dx2    tot
  1  0.326  0.024  0.024  0.024  0.000  0.000  0.000  0.000  0.000  0.397
 
band   2 # energy    7.98606304 # occ.  2.00000000
 
ion      s     py     pz     px    dxy    dyz    dz2    dxz    dx2    tot
  1  0.124  0.083  0.083  0.083  0.000  0.000  0.000  0.000  0.000  0.372
 
band   3 # energy   18.09385571 # occ.  0.00000000
 
ion      s     py     pz     px    dxy    dyz    dz2    dxz    dx2    tot
  1  0.000  0.363  0.091  0.090  0.000  0.000  0.000  0.000  0.000  0.544
 
band   4 # energy   18.09385573 # occ.  0.00000000
 
ion      s     py     pz     px    dxy    dyz    dz2    dxz    dx2    tot
  1  0.000  0.000  0.272  0.272  0.000  0.000  0.000  0.000  0.000  0.544
 
band   5 # energy   21.94052171 # occ.  0.00000000
 
ion      s     py     pz     px    dxy    dyz    dz2    dxz    dx2    tot
  1  0.000  0.030  0.003  0.046  0.000  0.000  0.000  0.000  0.000  0.079
 
band   6 # energy   21.94054841 # occ.  0.00000000
 
ion      s     py     pz     px    dxy    dyz    dz2    dxz    dx2    tot
  1  0.000  0.023  0.050  0.007  0.000  0.000  0.000  0.000  0.000  0.079
 

 k-point    5 :    0.27777778 0.27777778 0.27777778     weight = 0.02500000

band   1 # energy   -2.17375893 # occ.  2.00000000
 
ion      s     py     pz     px    dxy    dyz    dz2    dxz    dx2    tot
  1  0.342  0.017  0.017  0.017  0.000  0.000  0.000  0.000  0.000  0.393
 
band   2 # energy   10.02956709 # occ.  2.00000000
 
ion      s     py     pz     px    dxy    dyz    dz2    dxz    dx2    tot
  1  0.100  0.090  0.090  0.090  0.000  0.000  0.000  0.000  0.000  0.369
 
band   3 # energy   18.25308024 # occ.  0.00000000
 
ion      s     py     pz     px    dxy    dyz    dz2    dxz    dx2    tot
  1  0.000  0.343  0.086  0.086  0.000  0.000  0.000  0.000  0.000  0.515
 
band   4 # energy   18.25308026 # occ.  0.00000000
 
ion      s     py     pz     px    dxy    dyz    dz2    dxz    dx2    tot
  1  0.000  0.000  0.257  0.257  0.000  0.000  0.000  0.000  0.000  0.515
 
band   5 # energy   22.67075581 # occ.  0.00000000
 
ion      s     py     pz     px    dxy    dyz    dz2    dxz    dx2    tot
  1  0.160  0.023  0.036  0.016  0.000  0.000  0.000  0.000  0.000  0.236
 
band   6 # energy   22.72798769 # occ.  0.00000000
 
ion      s     py     pz     px    dxy    dyz    dz2    dxz    dx2    tot
  1  0.000  0.075  0.015  0.026  0.000  0.000  0.000  0.000  0.000  0.116
 

 k-point    6 :    0.22222222 0.22222222 0.22222222     weight = 0.02500000

band   1 # energy   -2.95913449 # occ.  2.00000000
 
ion      s     py     pz     px    dxy    dyz    dz2    dxz    dx2    tot
  1  0.358  0.011  0.011  0.011  0.000  0.000  0.000  0.000  0.000  0.392
 
band   2 # energy   12.19862329 # occ.  2.00000000
 
ion      s     py     pz     px    dxy    dyz    dz2    dxz    dx2    tot
  1  0.076  0.097  0.097  0.097  0.000  0.000  0.000  0.000  0.000  0.366
 
band   3 # energy   18.53412572 # occ.  0.00000000
 
ion      s     py     pz     px    dxy    dyz    dz2    dxz    dx2    tot
  1  0.000  0.331  0.083  0.083  0.000  0.000  0.000  0.000  0.000  0.496
 
band   4 # energy   18.53412574 # occ.  0.00000000
 
ion      s     py     pz     px    dxy    dyz    dz2    dxz    dx2    tot
  1  0.000  0.000  0.248  0.248  0.000  0.000  0.000  0.000  0.000  0.496
 
band   5 # energy   22.73977944 # occ.  0.00000000
 
ion      s     py     pz     px    dxy    dyz    dz2    dxz    dx2    tot
  1  0.125  0.040  0.040  0.040  0.000  0.000  0.000  0.000  0.000  0.246
 
band   6 # energy   23.49463733 # occ.  0.00000000
 
ion      s     py     pz     px    dxy    dyz    dz2    dxz    dx2    tot
  1  0.000  0.022  0.035  0.103  0.000  0.000  0.000  0.000  0.000  0.160
 

 k-point    7 :    0.16666667 0.16666667 0.16666667     weight = 0.02500000

band   1 # energy   -3.57246075 # occ.  2.00000000
 
ion      s     py     pz     px    dxy    dyz    dz2    dxz    dx2    tot
  1  0.371  0.007  0.007  0.007  0.000  0.000  0.000  0.000  0.000  0.391
 
band   2 # energy   14.46772987 # occ.  0.00000000
 
ion      s     py     pz     px    dxy    dyz    dz2    dxz    dx2    tot
  1  0.053  0.106  0.106  0.106  0.000  0.000  0.000  0.000  0.000  0.369
 
band   3 # energy   18.94131682 # occ.  0.00000000
 
ion      s     py     pz     px    dxy    dyz    dz2    dxz    dx2    tot
  1  0.000  0.325  0.076  0.086  0.000  0.000  0.000  0.000  0.000  0.488
 
band   4 # energy   18.94131684 # occ.  0.00000000
 
ion      s     py     pz     px    dxy    dyz    dz2    dxz    dx2    tot
  1  0.000  0.000  0.249  0.239  0.000  0.000  0.000  0.000  0.000  0.488
 
band   5 # energy   22.82716821 # occ.  0.00000000
 
ion      s     py     pz     px    dxy    dyz    dz2    dxz    dx2    tot
  1  0.083  0.058  0.058  0.058  0.000  0.000  0.000  0.000  0.000  0.257
 
band   6 # energy   23.75817380 # occ.  0.00000000
 
ion      s     py     pz     px    dxy    dyz    dz2    dxz    dx2    tot
  1  0.000  0.009  0.084  0.121  0.000  0.000  0.000  0.000  0.000  0.215
 

 k-point    8 :    0.11111111 0.11111111 0.11111111     weight = 0.02500000

band   1 # energy   -4.01184224 # occ.  2.00000000
 
ion      s     py     pz     px    dxy    dyz    dz2    dxz    dx2    tot
  1  0.380  0.003  0.003  0.003  0.000  0.000  0.000  0.000  0.000  0.389
 
band   2 # energy   16.78795550 # occ.  0.00000000
 
ion      s     py     pz     px    dxy    dyz    dz2    dxz    dx2    tot
  1  0.031  0.119  0.119  0.119  0.000  0.000  0.000  0.000  0.000  0.387
 
band   3 # energy   19.46974109 # occ.  0.00000000
 
ion      s     py     pz     px    dxy    dyz    dz2    dxz    dx2    tot
  1  0.000  0.332  0.083  0.083  0.000  0.000  0.000  0.000  0.000  0.498
 
band   4 # energy   19.46974111 # occ.  0.00000000
 
ion      s     py     pz     px    dxy    dyz    dz2    dxz    dx2    tot
  1  0.000  0.000  0.249  0.249  0.000  0.000  0.000  0.000  0.000  0.498
 
band   5 # energy   22.82335443 # occ.  0.00000000
 
ion      s     py     pz     px    dxy    dyz    dz2    dxz    dx2    tot
  1  0.041  0.074  0.074  0.074  0.000  0.000  0.000  0.000  0.000  0.264
 
band   6 # energy   23.13939811 # occ.  0.00000000
 
ion      s     py     pz     px    dxy    dyz    dz2    dxz    dx2    tot
  1  0.000  0.117  0.071  0.016  0.000  0.000  0.000  0.000  0.000  0.204
 

 k-point    9 :    0.05555556 0.05555556 0.05555556     weight = 0.02500000

band   1 # energy   -4.27599665 # occ.  2.00000000
 
ion      s     py     pz     px    dxy    dyz    dz2    dxz    dx2    tot
  1  0.386  0.001  0.001  0.001  0.000  0.000  0.000  0.000  0.000  0.389
 
band   2 # energy   19.01727996 # occ.  0.00000000
 
ion      s     py     pz     px    dxy    dyz    dz2    dxz    dx2    tot
  1  0.012  0.145  0.145  0.145  0.000  0.000  0.000  0.000  0.000  0.447
 
band   3 # energy   20.07825966 # occ.  0.00000000
 
ion      s     py     pz     px    dxy    dyz    dz2    dxz    dx2    tot
  1  0.000  0.371  0.097  0.089  0.000  0.000  0.000  0.000  0.000  0.557
 
band   4 # energy   20.07825968 # occ.  0.00000000
 
ion      s     py     pz     px    dxy    dyz    dz2    dxz    dx2    tot
  1  0.000  0.000  0.275  0.282  0.000  0.000  0.000  0.000  0.000  0.557
 
band   5 # energy   22.27178820 # occ.  0.00000000
 
ion      s     py     pz     px    dxy    dyz    dz2    dxz    dx2    tot
  1  0.000  0.018  0.088  0.028  0.000  0.000  0.000  0.000  0.000  0.134
 
band   6 # energy   22.27185361 # occ.  0.00000000
 
ion      s     py     pz     px    dxy    dyz    dz2    dxz    dx2    tot
  1  0.000  0.069  0.001  0.063  0.000  0.000  0.000  0.000  0.000  0.134
 

 k-point   10 :    0.00000000 0.00000000 0.00000000     weight = 0.02500000

band   1 # energy   -4.36439269 # occ.  2.00000000
 
ion      s     py     pz     px    dxy    dyz    dz2    dxz    dx2    tot
  1  0.388  0.000  0.000  0.000  0.000  0.000  0.000  0.000  0.000  0.388
 
band   2 # energy   20.47971563 # occ.  0.00000000
 
ion      s     py     pz     px    dxy    dyz    dz2    dxz    dx2    tot
  1  0.000  0.228  0.228  0.229  0.000  0.000  0.000  0.000  0.000  0.686
 
band   3 # energy   20.47994239 # occ.  0.00000000
 
ion      s     py     pz     px    dxy    dyz    dz2    dxz    dx2    tot
  1  0.000  0.213  0.395  0.077  0.000  0.000  0.000  0.000  0.000  0.686
 
band   4 # energy   20.47994263 # occ.  0.00000000
 
ion      s     py     pz     px    dxy    dyz    dz2    dxz    dx2    tot
  1  0.000  0.244  0.062  0.379  0.000  0.000  0.000  0.000  0.000  0.686
 
band   5 # energy   21.72500966 # occ.  0.00000000
 
ion      s     py     pz     px    dxy    dyz    dz2    dxz    dx2    tot
  1  0.000  0.000  0.000  0.000  0.000  0.000  0.000  0.000  0.000  0.000
 
band   6 # energy   21.72521574 # occ.  0.00000000
 
ion      s     py     pz     px    dxy    dyz    dz2    dxz    dx2    tot
  1  0.000  0.000  0.000  0.000  0.000  0.000  0.000  0.000  0.000  0.000
 

 k-point   11 :    0.00000000 0.00000000 0.00000000     weight = 0.02500000

band   1 # energy   -4.36439269 # occ.  2.00000000
 
ion      s     py     pz     px    dxy    dyz    dz2    dxz    dx2    tot
  1  0.388  0.000  0.000  0.000  0.000  0.000  0.000  0.000  0.000  0.388
 
band   2 # energy   20.47971748 # occ.  0.00000000
 
ion      s     py     pz     px    dxy    dyz    dz2    dxz    dx2    tot
  1  0.000  0.223  0.238  0.225  0.000  0.000  0.000  0.000  0.000  0.686
 
band   3 # energy   20.47994239 # occ.  0.00000000
 
ion      s     py     pz     px    dxy    dyz    dz2    dxz    dx2    tot
  1  0.000  0.295  0.006  0.385  0.000  0.000  0.000  0.000  0.000  0.686
 
band   4 # energy   20.47994887 # occ.  0.00000000
 
ion      s     py     pz     px    dxy    dyz    dz2    dxz    dx2    tot
  1  0.000  0.168  0.441  0.076  0.000  0.000  0.000  0.000  0.000  0.686
 
band   5 # energy   21.72512169 # occ.  0.00000000
 
ion      s     py     pz     px    dxy    dyz    dz2    dxz    dx2    tot
  1  0.000  0.000  0.000  0.000  0.000  0.000  0.000  0.000  0.000  0.000
 
band   6 # energy   21.72521575 # occ.  0.00000000
 
ion      s     py     pz     px    dxy    dyz    dz2    dxz    dx2    tot
  1  0.000  0.000  0.000  0.000  0.000  0.000  0.000  0.000  0.000  0.000
 

 k-point   12 :    0.00000000 0.05555556 0.05555556     weight = 0.02500000

band   1 # energy   -4.24653432 # occ.  2.00000000
 
ion      s     py     pz     px    dxy    dyz    dz2    dxz    dx2    tot
  1  0.386  0.000  0.003  0.000  0.000  0.000  0.000  0.000  0.000  0.389
 
band   2 # energy   19.32868340 # occ.  0.00000000
 
ion      s     py     pz     px    dxy    dyz    dz2    dxz    dx2    tot
  1  0.000  0.238  0.000  0.238  0.000  0.000  0.000  0.000  0.000  0.476
 
band   3 # energy   19.32883967 # occ.  0.00000000
 
ion      s     py     pz     px    dxy    dyz    dz2    dxz    dx2    tot
  1  0.000  0.238  0.000  0.238  0.000  0.000  0.000  0.000  0.000  0.476
 
band   4 # energy   20.20146109 # occ.  0.00000000
 
ion      s     py     pz     px    dxy    dyz    dz2    dxz    dx2    tot
  1  0.026  0.000  0.660  0.000  0.000  0.000  0.000  0.000  0.000  0.686
 
band   5 # energy   21.10843404 # occ.  0.00000000
 
ion      s     py     pz     px    dxy    dyz    dz2    dxz    dx2    tot
  1  0.000  0.000  0.000  0.000  0.000  0.000  0.000  0.000  0.000  0.000
 
band   6 # energy   23.07567321 # occ.  0.00000000
 
ion      s     py     pz     px    dxy    dyz    dz2    dxz    dx2    tot
  1  0.000  0.065  0.000  0.149  0.000  0.000  0.000  0.000  0.000  0.214
 

 k-point   13 :    0.00000000 0.11111111 0.11111111     weight = 0.02500000

band   1 # energy   -3.89441407 # occ.  2.00000000
 
ion      s     py     pz     px    dxy    dyz    dz2    dxz    dx2    tot
  1  0.378  0.000  0.012  0.000  0.000  0.000  0.000  0.000  0.000  0.390
 
band   2 # energy   17.87871633 # occ.  0.00000000
 
ion      s     py     pz     px    dxy    dyz    dz2    dxz    dx2    tot
  1  0.000  0.220  0.000  0.220  0.000  0.000  0.000  0.000  0.000  0.441
 
band   3 # energy   17.87885521 # occ.  0.00000000
 
ion      s     py     pz     px    dxy    dyz    dz2    dxz    dx2    tot
  1  0.000  0.220  0.000  0.220  0.000  0.000  0.000  0.000  0.000  0.441
 
band   4 # energy   19.43830629 # occ.  0.00000000
 
ion      s     py     pz     px    dxy    dyz    dz2    dxz    dx2    tot
  1  0.088  0.000  0.600  0.000  0.000  0.000  0.000  0.000  0.000  0.689
 
band   5 # energy   19.80285285 # occ.  0.00000000
 
ion      s     py     pz     px    dxy    dyz    dz2    dxz    dx2    tot
  1  0.000  0.000  0.000  0.000  0.000  0.000  0.000  0.000  0.000  0.000
 
band   6 # energy   24.67846523 # occ.  0.00000000
 
ion      s     py     pz     px    dxy    dyz    dz2    dxz    dx2    tot
  1  0.004  0.000  0.018  0.000  0.000  0.000  0.000  0.000  0.000  0.022
 

 k-point   14 :    0.00000000 0.16666667 0.16666667     weight = 0.02500000

band   1 # energy   -3.30892355 # occ.  2.00000000
 
ion      s     py     pz     px    dxy    dyz    dz2    dxz    dx2    tot
  1  0.365  0.000  0.027  0.000  0.000  0.000  0.000  0.000  0.000  0.391
 
band   2 # energy   16.57650740 # occ.  0.00000000
 
ion      s     py     pz     px    dxy    dyz    dz2    dxz    dx2    tot
  1  0.000  0.220  0.000  0.220  0.000  0.000  0.000  0.000  0.000  0.440
 
band   3 # energy   16.57663549 # occ.  0.00000000
 
ion      s     py     pz     px    dxy    dyz    dz2    dxz    dx2    tot
  1  0.000  0.220  0.000  0.220  0.000  0.000  0.000  0.000  0.000  0.440
 
band   4 # energy   18.26993228 # occ.  0.00000000
 
ion      s     py     pz     px    dxy    dyz    dz2    dxz    dx2    tot
  1  0.156  0.000  0.536  0.000  0.000  0.000  0.000  0.000  0.000  0.691
 
band   5 # energy   18.45494390 # occ.  0.00000000
 
ion      s     py     pz     px    dxy    dyz    dz2    dxz    dx2    tot
  1  0.000  0.000  0.000  0.000  0.000  0.000  0.000  0.000  0.000  0.000
 
band   6 # energy   21.94578652 # occ.  0.00000000
 
ion      s     py     pz     px    dxy    dyz    dz2    dxz    dx2    tot
  1  0.014  0.000  0.003  0.000  0.000  0.000  0.000  0.000  0.000  0.017
 

 k-point   15 :    0.00000000 0.22222222 0.22222222     weight = 0.02500000

band   1 # energy   -2.49198525 # occ.  2.00000000
 
ion      s     py     pz     px    dxy    dyz    dz2    dxz    dx2    tot
  1  0.347  0.000  0.046  0.000  0.000  0.000  0.000  0.000  0.000  0.393
 
band   2 # energy   15.46108756 # occ.  0.00000000
 
ion      s     py     pz     px    dxy    dyz    dz2    dxz    dx2    tot
  1  0.000  0.225  0.000  0.224  0.000  0.000  0.000  0.000  0.000  0.449
 
band   3 # energy   15.46120624 # occ.  0.00000000
 
ion      s     py     pz     px    dxy    dyz    dz2    dxz    dx2    tot
  1  0.000  0.224  0.000  0.225  0.000  0.000  0.000  0.000  0.000  0.449
 
band   4 # energy   16.56507755 # occ.  0.00000000
 
ion      s     py     pz     px    dxy    dyz    dz2    dxz    dx2    tot
  1  0.186  0.000  0.451  0.000  0.000  0.000  0.000  0.000  0.000  0.636
 
band   5 # energy   17.24437697 # occ.  0.00000000
 
ion      s     py     pz     px    dxy    dyz    dz2    dxz    dx2    tot
  1  0.000  0.000  0.000  0.000  0.000  0.000  0.000  0.000  0.000  0.000
 
band   6 # energy   19.79515824 # occ.  0.00000000
 
ion      s     py     pz     px    dxy    dyz    dz2    dxz    dx2    tot
  1  0.062  0.000  0.009  0.000  0.000  0.000  0.000  0.000  0.000  0.071
 

 k-point   16 :    0.00000000 0.27777778 0.27777778     weight = 0.02500000

band   1 # energy   -1.44558936 # occ.  2.00000000
 
ion      s     py     pz     px    dxy    dyz    dz2    dxz    dx2    tot
  1  0.325  0.000  0.071  0.000  0.000  0.000  0.000  0.000  0.000  0.396
 
band   2 # energy   14.29057789 # occ.  0.00000000
 
ion      s     py     pz     px    dxy    dyz    dz2    dxz    dx2    tot
  1  0.179  0.000  0.348  0.000  0.000  0.000  0.000  0.000  0.000  0.528
 
band   3 # energy   14.53833979 # occ.  0.00000000
 
ion      s     py     pz     px    dxy    dyz    dz2    dxz    dx2    tot
  1  0.000  0.228  0.000  0.228  0.000  0.000  0.000  0.000  0.000  0.457
 
band   4 # energy   14.53848477 # occ.  0.00000000
 
ion      s     py     pz     px    dxy    dyz    dz2    dxz    dx2    tot
  1  0.000  0.228  0.000  0.228  0.000  0.000  0.000  0.000  0.000  0.457
 
band   5 # energy   16.20474712 # occ.  0.00000000
 
ion      s     py     pz     px    dxy    dyz    dz2    dxz    dx2    tot
  1  0.000  0.000  0.000  0.000  0.000  0.000  0.000  0.000  0.000  0.000
 
band   6 # energy   18.41442905 # occ.  0.00000000
 
ion      s     py     pz     px    dxy    dyz    dz2    dxz    dx2    tot
  1  0.141  0.000  0.035  0.000  0.000  0.000  0.000  0.000  0.000  0.176
 

 k-point   17 :    0.00000000 0.33333333 0.33333333     weight = 0.02500000

band   1 # energy   -0.17521521 # occ.  2.00000000
 
ion      s     py     pz     px    dxy    dyz    dz2    dxz    dx2    tot
  1  0.298  0.000  0.100  0.000  0.000  0.000  0.000  0.000  0.000  0.397
 
band   2 # energy   11.81182546 # occ.  2.00000000
 
ion      s     py     pz     px    dxy    dyz    dz2    dxz    dx2    tot
  1  0.184  0.000  0.280  0.000  0.000  0.000  0.000  0.000  0.000  0.464
 
band   3 # energy   13.82052250 # occ.  0.00000000
 
ion      s     py     pz     px    dxy    dyz    dz2    dxz    dx2    tot
  1  0.000  0.233  0.000  0.233  0.000  0.000  0.000  0.000  0.000  0.467
 
band   4 # energy   13.82066062 # occ.  0.00000000
 
ion      s     py     pz     px    dxy    dyz    dz2    dxz    dx2    tot
  1  0.000  0.233  0.000  0.233  0.000  0.000  0.000  0.000  0.000  0.467
 
band   5 # energy   15.40175591 # occ.  0.00000000
 
ion      s     py     pz     px    dxy    dyz    dz2    dxz    dx2    tot
  1  0.000  0.000  0.000  0.000  0.000  0.000  0.000  0.000  0.000  0.000
 
band   6 # energy   17.51948282 # occ.  0.00000000
 
ion      s     py     pz     px    dxy    dyz    dz2    dxz    dx2    tot
  1  0.204  0.000  0.033  0.000  0.000  0.000  0.000  0.000  0.000  0.237
 

 k-point   18 :    0.00000000 0.38888889 0.38888889     weight = 0.02500000

band   1 # energy    1.31566710 # occ.  2.00000000
 
ion      s     py     pz     px    dxy    dyz    dz2    dxz    dx2    tot
  1  0.267  0.000  0.134  0.000  0.000  0.000  0.000  0.000  0.000  0.401
 
band   2 # energy    9.38296680 # occ.  2.00000000
 
ion      s     py     pz     px    dxy    dyz    dz2    dxz    dx2    tot
  1  0.205  0.000  0.231  0.000  0.000  0.000  0.000  0.000  0.000  0.436
 
band   3 # energy   13.30704203 # occ.  0.00000000
 
ion      s     py     pz     px    dxy    dyz    dz2    dxz    dx2    tot
  1  0.000  0.237  0.000  0.237  0.000  0.000  0.000  0.000  0.000  0.474
 
band   4 # energy   13.30717554 # occ.  0.00000000
 
ion      s     py     pz     px    dxy    dyz    dz2    dxz    dx2    tot
  1  0.000  0.237  0.000  0.237  0.000  0.000  0.000  0.000  0.000  0.474
 
band   5 # energy   14.82606542 # occ.  0.00000000
 
ion      s     py     pz     px    dxy    dyz    dz2    dxz    dx2    tot
  1  0.000  0.000  0.000  0.000  0.000  0.000  0.000  0.000  0.000  0.000
 
band   6 # energy   16.93494234 # occ.  0.00000000
 
ion      s     py     pz     px    dxy    dyz    dz2    dxz    dx2    tot
  1  0.243  0.000  0.019  0.000  0.000  0.000  0.000  0.000  0.000  0.262
 

 k-point   19 :    0.00000000 0.44444444 0.44444444     weight = 0.02500000

band   1 # energy    3.01140463 # occ.  2.00000000
 
ion      s     py     pz     px    dxy    dyz    dz2    dxz    dx2    tot
  1  0.220  0.000  0.179  0.000  0.000  0.000  0.000  0.000  0.000  0.399
 
band   2 # energy    7.10384055 # occ.  2.00000000
 
ion      s     py     pz     px    dxy    dyz    dz2    dxz    dx2    tot
  1  0.247  0.000  0.181  0.000  0.000  0.000  0.000  0.000  0.000  0.428
 
band   3 # energy   12.99767038 # occ.  0.00002371
 
ion      s     py     pz     px    dxy    dyz    dz2    dxz    dx2    tot
  1  0.000  0.239  0.000  0.239  0.000  0.000  0.000  0.000  0.000  0.479
 
band   4 # energy   12.99780207 # occ.  0.00002352
 
ion      s     py     pz     px    dxy    dyz    dz2    dxz    dx2    tot
  1  0.000  0.239  0.000  0.239  0.000  0.000  0.000  0.000  0.000  0.479
 
band   5 # energy   14.47748466 # occ.  0.00000000
 
ion      s     py     pz     px    dxy    dyz    dz2    dxz    dx2    tot
  1  0.000  0.000  0.000  0.000  0.000  0.000  0.000  0.000  0.000  0.000
 
band   6 # energy   16.59002407 # occ.  0.00000000
 
ion      s     py     pz     px    dxy    dyz    dz2    dxz    dx2    tot
  1  0.267  0.000  0.005  0.000  0.000  0.000  0.000  0.000  0.000  0.272
 

 k-point   20 :    0.00000000 0.50000000 0.50000000     weight = 0.02500000

band   1 # energy    4.61588506 # occ.  2.00000000
 
ion      s     py     pz     px    dxy    dyz    dz2    dxz    dx2    tot
  1  0.000  0.000  0.359  0.000  0.000  0.000  0.000  0.000  0.000  0.359
 
band   2 # energy    5.30369379 # occ.  2.00000000
 
ion      s     py     pz     px    dxy    dyz    dz2    dxz    dx2    tot
  1  0.466  0.000  0.000  0.000  0.000  0.000  0.000  0.000  0.000  0.466
 
band   3 # energy   12.89445019 # occ.  0.00565842
 
ion      s     py     pz     px    dxy    dyz    dz2    dxz    dx2    tot
  1  0.000  0.240  0.000  0.240  0.000  0.000  0.000  0.000  0.000  0.481
 
band   4 # energy   12.89458115 # occ.  0.00562636
 
ion      s     py     pz     px    dxy    dyz    dz2    dxz    dx2    tot
  1  0.000  0.240  0.000  0.240  0.000  0.000  0.000  0.000  0.000  0.481
 
band   5 # energy   14.36106738 # occ.  0.00000000
 
ion      s     py     pz     px    dxy    dyz    dz2    dxz    dx2    tot
  1  0.000  0.000  0.000  0.000  0.000  0.000  0.000  0.000  0.000  0.000
 
band   6 # energy   16.48023727 # occ.  0.00000000
 
ion      s     py     pz     px    dxy    dyz    dz2    dxz    dx2    tot
  1  0.274  0.000  0.000  0.000  0.000  0.000  0.000  0.000  0.000  0.274
 

 k-point   21 :    0.00000000 0.50000000 0.50000000     weight = 0.02500000

band   1 # energy    4.61588506 # occ.  2.00000000
 
ion      s     py     pz     px    dxy    dyz    dz2    dxz    dx2    tot
  1  0.000  0.000  0.359  0.000  0.000  0.000  0.000  0.000  0.000  0.359
 
band   2 # energy    5.30369379 # occ.  2.00000000
 
ion      s     py     pz     px    dxy    dyz    dz2    dxz    dx2    tot
  1  0.466  0.000  0.000  0.000  0.000  0.000  0.000  0.000  0.000  0.466
 
band   3 # energy   12.89445019 # occ.  0.00565842
 
ion      s     py     pz     px    dxy    dyz    dz2    dxz    dx2    tot
  1  0.000  0.240  0.000  0.240  0.000  0.000  0.000  0.000  0.000  0.481
 
band   4 # energy   12.89458115 # occ.  0.00562636
 
ion      s     py     pz     px    dxy    dyz    dz2    dxz    dx2    tot
  1  0.000  0.240  0.000  0.240  0.000  0.000  0.000  0.000  0.000  0.481
 
band   5 # energy   14.36106738 # occ.  0.00000000
 
ion      s     py     pz     px    dxy    dyz    dz2    dxz    dx2    tot
  1  0.000  0.000  0.000  0.000  0.000  0.000  0.000  0.000  0.000  0.000
 
band   6 # energy   16.48023727 # occ.  0.00000000
 
ion      s     py     pz     px    dxy    dyz    dz2    dxz    dx2    tot
  1  0.274  0.000  0.000  0.000  0.000  0.000  0.000  0.000  0.000  0.274
 

 k-point   22 :    0.02777778 0.51388889 0.51388889     weight = 0.02500000

band   1 # energy    4.62973844 # occ.  2.00000000
 
ion      s     py     pz     px    dxy    dyz    dz2    dxz    dx2    tot
  1  0.000  0.000  0.359  0.000  0.000  0.000  0.000  0.000  0.000  0.359
 
band   2 # energy    5.31717253 # occ.  2.00000000
 
ion      s     py     pz     px    dxy    dyz    dz2    dxz    dx2    tot
  1  0.466  0.000  0.000  0.000  0.000  0.000  0.000  0.000  0.000  0.466
 
band   3 # energy   12.52247606 # occ.  1.98735319
 
ion      s     py     pz     px    dxy    dyz    dz2    dxz    dx2    tot
  1  0.010  0.205  0.000  0.205  0.000  0.000  0.000  0.000  0.000  0.420
 
band   4 # energy   12.90735866 # occ.  0.00318290
 
ion      s     py     pz     px    dxy    dyz    dz2    dxz    dx2    tot
  1  0.000  0.240  0.000  0.240  0.000  0.000  0.000  0.000  0.000  0.481
 
band   5 # energy   14.62598855 # occ.  0.00000000
 
ion      s     py     pz     px    dxy    dyz    dz2    dxz    dx2    tot
  1  0.005  0.024  0.000  0.024  0.000  0.000  0.000  0.000  0.000  0.053
 
band   6 # energy   16.62397102 # occ.  0.00000000
 
ion      s     py     pz     px    dxy    dyz    dz2    dxz    dx2    tot
  1  0.259  0.011  0.000  0.011  0.000  0.000  0.000  0.000  0.000  0.280
 

 k-point   23 :    0.05555556 0.52777778 0.52777778     weight = 0.02500000

band   1 # energy    4.67129809 # occ.  2.00000000
 
ion      s     py     pz     px    dxy    dyz    dz2    dxz    dx2    tot
  1  0.000  0.000  0.359  0.000  0.000  0.000  0.000  0.000  0.000  0.359
 
band   2 # energy    5.35746142 # occ.  2.00000000
 
ion      s     py     pz     px    dxy    dyz    dz2    dxz    dx2    tot
  1  0.467  0.001  0.000  0.001  0.000  0.000  0.000  0.000  0.000  0.468
 
band   3 # energy   11.79455945 # occ.  2.00000000
 
ion      s     py     pz     px    dxy    dyz    dz2    dxz    dx2    tot
  1  0.024  0.176  0.000  0.176  0.000  0.000  0.000  0.000  0.000  0.376
 
band   4 # energy   12.94568291 # occ.  0.00048034
 
ion      s     py     pz     px    dxy    dyz    dz2    dxz    dx2    tot
  1  0.000  0.240  0.000  0.240  0.000  0.000  0.000  0.000  0.000  0.480
 
band   5 # energy   15.01787119 # occ.  0.00000000
 
ion      s     py     pz     px    dxy    dyz    dz2    dxz    dx2    tot
  1  0.034  0.026  0.000  0.026  0.000  0.000  0.000  0.000  0.000  0.087
 
band   6 # energy   17.06996924 # occ.  0.00000000
 
ion      s     py     pz     px    dxy    dyz    dz2    dxz    dx2    tot
  1  0.213  0.038  0.000  0.038  0.000  0.000  0.000  0.000  0.000  0.289
 

 k-point   24 :    0.08333333 0.54166667 0.54166667     weight = 0.02500000
