<?xml version="1.0" encoding="ISO-8859-1"?>
<modeling>
 <generator>
  <i name="program" type="string">vasp </i>
  <i name="version" type="string">5.3.5  </i>
  <i name="subversion" type="string">31Mar14 (build Feb  5 2015 19:39:53) complex                          parallel </i>
  <i name="platform" type="string">HPCUofA </i>
  <i name="date" type="string">2017 11 13 </i>
  <i name="time" type="string">12:32:45 </i>
 </generator>
 <incar>
  <i type="string" name="SYSTEM"> fcc Si</i>
  <i type="string" name="PREC">normal</i>
  <i type="int" name="ICHARG">    11</i>
  <i name="ENCUT">    240.00000000</i>
  <i type="int" name="ISMEAR">     0</i>
  <i name="SIGMA">      0.10000000</i>
  <i type="logical" name="LORBIT"> F  </i>
 </incar>
 <kpoints>
  <generation param="listgenerated">
   <i name="divisions" type="int">      10 </i>
   <v>       0.50000000       0.50000000       0.50000000 </v>
   <v>       0.00000000       0.00000000       0.00000000 </v>
   <v>       0.00000000       0.50000000       0.50000000 </v>
   <v>       0.37500000       0.75000000       0.37500000 </v>
   <v>       0.00000000       0.00000000       0.00000000 </v>
  </generation>
  <varray name="kpointlist" >
   <v>       0.50000000       0.50000000       0.50000000 </v>
   <v>       0.44444444       0.44444444       0.44444444 </v>
   <v>       0.38888889       0.38888889       0.38888889 </v>
   <v>       0.33333333       0.33333333       0.33333333 </v>
   <v>       0.27777778       0.27777778       0.27777778 </v>
   <v>       0.22222222       0.22222222       0.22222222 </v>
   <v>       0.16666667       0.16666667       0.16666667 </v>
   <v>       0.11111111       0.11111111       0.11111111 </v>
   <v>       0.05555556       0.05555556       0.05555556 </v>
   <v>       0.00000000       0.00000000       0.00000000 </v>
   <v>       0.00000000       0.00000000       0.00000000 </v>
   <v>       0.00000000       0.05555556       0.05555556 </v>
   <v>       0.00000000       0.11111111       0.11111111 </v>
   <v>       0.00000000       0.16666667       0.16666667 </v>
   <v>       0.00000000       0.22222222       0.22222222 </v>
   <v>       0.00000000       0.27777778       0.27777778 </v>
   <v>       0.00000000       0.33333333       0.33333333 </v>
   <v>       0.00000000       0.38888889       0.38888889 </v>
   <v>       0.00000000       0.44444444       0.44444444 </v>
   <v>       0.00000000       0.50000000       0.50000000 </v>
   <v>       0.00000000       0.50000000       0.50000000 </v>
   <v>       0.02777778       0.51388889       0.51388889 </v>
   <v>       0.05555556       0.52777778       0.52777778 </v>
   <v>       0.08333333       0.54166667       0.54166667 </v>
   <v>       0.11111111       0.55555556       0.55555556 </v>
   <v>       0.13888889       0.56944444       0.56944444 </v>
   <v>       0.16666667       0.58333333       0.58333333 </v>
   <v>       0.19444444       0.59722222       0.59722222 </v>
   <v>       0.22222222       0.61111111       0.61111111 </v>
   <v>       0.25000000       0.62500000       0.62500000 </v>
   <v>       0.37500000       0.75000000       0.37500000 </v>
   <v>       0.33333333       0.66666667       0.33333333 </v>
   <v>       0.29166667       0.58333333       0.29166667 </v>
   <v>       0.25000000       0.50000000       0.25000000 </v>
   <v>       0.20833333       0.41666667       0.20833333 </v>
   <v>       0.16666667       0.33333333       0.16666667 </v>
   <v>       0.12500000       0.25000000       0.12500000 </v>
   <v>       0.08333333       0.16666667       0.08333333 </v>
   <v>       0.04166667       0.08333333       0.04166667 </v>
   <v>       0.00000000       0.00000000       0.00000000 </v>
  </varray>
  <varray name="weights" >
   <v>       0.02500000 </v>
   <v>       0.02500000 </v>
   <v>       0.02500000 </v>
   <v>       0.02500000 </v>
   <v>       0.02500000 </v>
   <v>       0.02500000 </v>
   <v>       0.02500000 </v>
   <v>       0.02500000 </v>
   <v>       0.02500000 </v>
   <v>       0.02500000 </v>
   <v>       0.02500000 </v>
   <v>       0.02500000 </v>
   <v>       0.02500000 </v>
   <v>       0.02500000 </v>
   <v>       0.02500000 </v>
   <v>       0.02500000 </v>
   <v>       0.02500000 </v>
   <v>       0.02500000 </v>
   <v>       0.02500000 </v>
   <v>       0.02500000 </v>
   <v>       0.02500000 </v>
   <v>       0.02500000 </v>
   <v>       0.02500000 </v>
   <v>       0.02500000 </v>
   <v>       0.02500000 </v>
   <v>       0.02500000 </v>
   <v>       0.02500000 </v>
   <v>       0.02500000 </v>
   <v>       0.02500000 </v>
   <v>       0.02500000 </v>
   <v>       0.02500000 </v>
   <v>       0.02500000 </v>
   <v>       0.02500000 </v>
   <v>       0.02500000 </v>
   <v>       0.02500000 </v>
   <v>       0.02500000 </v>
   <v>       0.02500000 </v>
   <v>       0.02500000 </v>
   <v>       0.02500000 </v>
   <v>       0.02500000 </v>
  </varray>
 </kpoints>
 <parameters>
  <separator name="general" >
   <i type="string" name="SYSTEM">fcc Si</i>
   <i type="logical" name="LCOMPAT"> F  </i>
  </separator>
  <separator name="electronic" >
   <i type="string" name="PREC">normal</i>
   <i name="ENMAX">    240.00000000</i>
   <i name="ENAUG">    322.06900000</i>
   <i name="EDIFF">      0.00010000</i>
   <i type="int" name="IALGO">    38</i>
   <i type="int" name="IWAVPR">    10</i>
   <i type="int" name="NBANDS">     6</i>
   <i name="NELECT">      4.00000000</i>
   <i type="int" name="TURBO">     0</i>
   <i type="int" name="IRESTART">     0</i>
   <i type="int" name="NREBOOT">     0</i>
   <i type="int" name="NMIN">     0</i>
   <i name="EREF">      0.00000000</i>
   <separator name="electronic smearing" >
    <i type="int" name="ISMEAR">     0</i>
    <i name="SIGMA">      0.10000000</i>
    <i name="KSPACING">      0.50000000</i>
    <i type="logical" name="KGAMMA"> T  </i>
   </separator>
   <separator name="electronic projectors" >
    <i type="logical" name="LREAL"> F  </i>
    <v name="ROPT">      0.00000000</v>
    <i type="int" name="LMAXPAW">  -100</i>
    <i type="int" name="LMAXMIX">     2</i>
    <i type="logical" name="NLSPLINE"> F  </i>
   </separator>
   <separator name="electronic startup" >
    <i type="int" name="ISTART">     0</i>
    <i type="int" name="ICHARG">    11</i>
    <i type="int" name="INIWAV">     1</i>
   </separator>
   <separator name="electronic spin" >
    <i type="int" name="ISPIN">     1</i>
    <i type="logical" name="LNONCOLLINEAR"> F  </i>
    <v name="MAGMOM">      1.00000000</v>
    <i name="NUPDOWN">     -1.00000000</i>
    <i type="logical" name="LSORBIT"> F  </i>
    <v name="SAXIS">      0.00000000      0.00000000      1.00000000</v>
    <i type="logical" name="LSPIRAL"> F  </i>
    <v name="QSPIRAL">      0.00000000      0.00000000      0.00000000</v>
    <i type="logical" name="LZEROZ"> F  </i>
   </separator>
   <separator name="electronic exchange-correlation" >
    <i type="logical" name="LASPH"> F  </i>
    <i type="logical" name="LMETAGGA"> F  </i>
   </separator>
   <separator name="electronic convergence" >
    <i type="int" name="NELM">    60</i>
    <i type="int" name="NELMDL">    -5</i>
    <i type="int" name="NELMIN">     2</i>
    <i name="ENINI">    240.00000000</i>
    <separator name="electronic convergence detail" >
     <i type="logical" name="LDIAG"> T  </i>
     <i type="logical" name="LSUBROT"> F  </i>
     <i name="WEIMIN">      0.00000000</i>
     <i name="EBREAK">      0.00000417</i>
     <i name="DEPER">      0.30000000</i>
     <i type="int" name="NRMM">     4</i>
     <i name="TIME">      0.40000000</i>
    </separator>
   </separator>
   <separator name="electronic mixer" >
    <i name="AMIX">      0.40000000</i>
    <i name="BMIX">      1.00000000</i>
    <i name="AMIN">      0.10000000</i>
    <i name="AMIX_MAG">      1.60000000</i>
    <i name="BMIX_MAG">      1.00000000</i>
    <separator name="electronic mixer details" >
     <i type="int" name="IMIX">     4</i>
     <i type="int" name="MAXMIX">   -45</i>
     <i name="WC">    100.00000000</i>
     <i type="int" name="INIMIX">     1</i>
     <i type="int" name="MIXPRE">     1</i>
     <i type="int" name="MREMOVE">     5</i>
    </separator>
   </separator>
   <separator name="electronic dipolcorrection" >
    <i type="logical" name="LDIPOL"> F  </i>
    <i type="logical" name="LMONO"> F  </i>
    <i type="int" name="IDIPOL">     0</i>
    <i name="EPSILON">      1.00000000</i>
    <v name="DIPOL">   -100.00000000   -100.00000000   -100.00000000</v>
    <i name="EFIELD">      0.00000000</i>
   </separator>
  </separator>
  <separator name="grids" >
   <i type="int" name="NGX">    10</i>
   <i type="int" name="NGY">    10</i>
   <i type="int" name="NGZ">    10</i>
   <i type="int" name="NGXF">    20</i>
   <i type="int" name="NGYF">    20</i>
   <i type="int" name="NGZF">    20</i>
   <i type="logical" name="ADDGRID"> F  </i>
  </separator>
  <separator name="ionic" >
   <i type="int" name="NSW">     0</i>
   <i type="int" name="IBRION">    -1</i>
   <i type="int" name="ISIF">     2</i>
   <i name="PSTRESS">      0.00000000</i>
   <i name="EDIFFG">      0.00100000</i>
   <i type="int" name="NFREE">     0</i>
   <i name="POTIM">      0.50000000</i>
   <i name="SMASS">     -3.00000000</i>
   <i name="SCALEE">      1.00000000</i>
  </separator>
  <separator name="ionic md" >
   <i name="TEBEG">      0.00010000</i>
   <i name="TEEND">      0.00010000</i>
   <i type="int" name="NBLOCK">     1</i>
   <i type="int" name="KBLOCK">     1</i>
   <i type="int" name="NPACO">   256</i>
   <i name="APACO">     16.00000000</i>
  </separator>
  <separator name="symmetry" >
   <i type="int" name="ISYM">     2</i>
   <i name="SYMPREC">      0.00001000</i>
  </separator>
  <separator name="dos" >
   <i type="logical" name="LORBIT"> F  </i>
   <v name="RWIGS">     -1.00000000</v>
   <i type="int" name="NEDOS">   301</i>
   <i name="EMIN">     10.00000000</i>
   <i name="EMAX">    -10.00000000</i>
   <i name="EFERMI">      0.00000000</i>
  </separator>
  <separator name="writing" >
   <i type="int" name="NWRITE">     2</i>
   <i type="logical" name="LWAVE"> T  </i>
   <i type="logical" name="LCHARG"> T  </i>
   <i type="logical" name="LPARD"> F  </i>
   <i type="logical" name="LVTOT"> F  </i>
   <i type="logical" name="LVHAR"> F  </i>
   <i type="logical" name="LELF"> F  </i>
   <i type="logical" name="LOPTICS"> F  </i>
   <v name="STM">      0.00000000      0.00000000      0.00000000      0.00000000      0.00000000      0.00000000      0.00000000</v>
  </separator>
  <separator name="performance" >
   <i type="int" name="NPAR">     1</i>
   <i type="int" name="NSIM">     4</i>
   <i type="int" name="NBLK">    -1</i>
   <i type="logical" name="LPLANE"> T  </i>
   <i type="logical" name="LSCALAPACK"> T  </i>
   <i type="logical" name="LSCAAWARE"> F  </i>
   <i type="logical" name="LSCALU"> F  </i>
   <i type="logical" name="LASYNC"> F  </i>
   <i type="logical" name="LORBITALREAL"> F  </i>
  </separator>
  <separator name="miscellaneous" >
   <i type="int" name="IDIOT">     3</i>
   <i type="logical" name="LMUSIC"> F  </i>
   <v name="POMASS">     28.08500000</v>
   <v name="DARWINR">      0.00000000</v>
   <v name="DARWINV">      1.00000000</v>
   <i type="logical" name="LCORR"> T  </i>
  </separator>
  <i type="logical" name="GGA_COMPAT"> T  </i>
  <i type="logical" name="LBERRY"> F  </i>
  <i type="int" name="ICORELEVEL">     0</i>
  <i type="logical" name="LDAU"> F  </i>
  <i type="int" name="I_CONSTRAINED_M">     0</i>
  <separator name="electronic exchange-correlation" >
   <i type="string" name="GGA">--</i>
   <i type="int" name="VOSKOWN">     0</i>
   <i type="logical" name="LHFCALC"> F  </i>
   <i type="string" name="PRECFOCK"></i>
   <i type="logical" name="LSYMGRAD"> F  </i>
   <i type="logical" name="LHFONE"> F  </i>
   <i type="logical" name="LRHFCALC"> F  </i>
   <i type="logical" name="LTHOMAS"> F  </i>
   <i type="logical" name="LMODELHF"> F  </i>
   <i name="ENCUT4O">     -1.00000000</i>
   <i type="int" name="EXXOEP">     0</i>
   <i type="int" name="FOURORBIT">     0</i>
   <i name="AEXX">      0.00000000</i>
   <i name="HFALPHA">      0.00000000</i>
   <i name="MCALPHA">      0.00000000</i>
   <i name="ALDAX">      1.00000000</i>
   <i name="AGGAX">      1.00000000</i>
   <i name="ALDAC">      1.00000000</i>
   <i name="AGGAC">      1.00000000</i>
   <i type="int" name="NKREDX">     1</i>
   <i type="int" name="NKREDY">     1</i>
   <i type="int" name="NKREDZ">     1</i>
   <i type="logical" name="SHIFTRED"> F  </i>
   <i type="logical" name="ODDONLY"> F  </i>
   <i type="logical" name="EVENONLY"> F  </i>
   <i type="int" name="LMAXFOCK">     0</i>
   <i type="int" name="NMAXFOCKAE">     0</i>
   <i type="logical" name="LFOCKAEDFT"> F  </i>
   <i name="HFSCREEN">      0.00000000</i>
   <i name="HFSCREENC">      0.00000000</i>
   <i type="int" name="NBANDSGWLOW">     0</i>
  </separator>
  <separator name="vdW DFT" >
   <i type="logical" name="LUSE_VDW"> F  </i>
   <i name="Zab_VDW">     -0.84910000</i>
   <i name="PARAM1">      0.12340000</i>
   <i name="PARAM2">      1.00000000</i>
   <i name="PARAM3">      0.00000000</i>
  </separator>
  <separator name="model GW" >
   <i type="int" name="MODEL_GW">     0</i>
   <i name="MODEL_EPS0">      8.89785000</i>
   <i name="MODEL_ALPHA">      1.00000000</i>
  </separator>
  <separator name="linear response parameters" >
   <i type="logical" name="LEPSILON"> F  </i>
   <i type="logical" name="LRPA"> F  </i>
   <i type="logical" name="LNABLA"> F  </i>
   <i type="logical" name="LVEL"> F  </i>
   <i type="int" name="KINTER">     0</i>
   <i name="CSHIFT">      0.10000000</i>
   <i name="OMEGAMAX">     -1.00000000</i>
   <i name="DEG_THRESHOLD">      0.00200000</i>
  </separator>
  <separator name="orbital magnetization" >
   <i type="logical" name="NUCIND"> F  </i>
   <v name="MAGPOS">      0.00000000      0.00000000      0.00000000</v>
   <i type="logical" name="LNICSALL"> T  </i>
   <i type="logical" name="ORBITALMAG"> F  </i>
   <i type="logical" name="LMAGBLOCH"> F  </i>
   <i type="logical" name="LCHIMAG"> F  </i>
   <i type="logical" name="LGAUGE"> T  </i>
   <i type="int" name="MAGATOM">     0</i>
   <v name="MAGDIPOL">      0.00000000      0.00000000      0.00000000</v>
   <v name="AVECCONST">      0.00000000      0.00000000      0.00000000</v>
  </separator>
  <separator name="response functions" >
   <i type="logical" name="LADDER"> F  </i>
   <i type="logical" name="LFXC"> F  </i>
   <i type="logical" name="LHARTREE"> T  </i>
   <i type="int" name="IBSE">     0</i>
   <i type="logical" name="LTCTE"> F  </i>
   <i type="logical" name="LTETE"> F  </i>
   <i type="logical" name="LTRIPLET"> F  </i>
   <i type="logical" name="LFXCEPS"> F  </i>
   <i type="logical" name="LFXHEG"> F  </i>
   <i type="logical" name="L2ORDER"> F  </i>
   <i type="logical" name="LUSEW"> F  </i>
   <i name="ENCUTGW">     -2.00000000</i>
   <i name="ENCUTGWSOFT">     -2.00000000</i>
   <i name="ENCUTLF">     -1.00000000</i>
   <i type="int" name="LMAXMP2">    -1</i>
   <i name="SCISSOR">      0.00000000</i>
   <i type="int" name="NOMEGA">     0</i>
   <i type="int" name="NOMEGAR">     0</i>
   <i type="int" name="NBANDSGW">    -1</i>
   <i type="int" name="NBANDSO">    -1</i>
   <i type="int" name="NBANDSV">    -1</i>
   <i type="int" name="NELM">     1</i>
   <i type="int" name="DIM">     3</i>
   <i type="int" name="ANTIRES">     0</i>
   <i name="OMEGAMAX">    -30.00000000</i>
   <i name="OMEGAMIN">    -30.00000000</i>
   <i name="OMEGATL">   -200.00000000</i>
   <i type="int" name="OMEGAGRID">     0</i>
   <i name="CSHIFT">     -0.10000000</i>
   <i type="logical" name="SELFENERGY"> F  </i>
   <i type="logical" name="LSPECTRAL"> F  </i>
   <i type="logical" name="ODDONLYGW"> F  </i>
   <i type="logical" name="EVENONLYGW"> F  </i>
   <i type="int" name="NKREDLFX">     1</i>
   <i type="int" name="NKREDLFY">     1</i>
   <i type="int" name="NKREDLFZ">     1</i>
   <i type="int" name="MAXMEM">  1800</i>
   <i type="int" name="TELESCOPE">     0</i>
   <i type="int" name="TAUPAR">     1</i>
  </separator>
  <separator name="External order field" >
   <i name="OFIELD_KAPPA">      0.00000000</i>
   <v name="OFIELD_K">      0.00000000      0.00000000      0.00000000</v>
   <i name="OFIELD_Q6_NEAR">      0.00000000</i>
   <i name="OFIELD_Q6_FAR">      0.00000000</i>
   <i name="OFIELD_A">      0.00000000</i>
  </separator>
 </parameters>
 <atominfo>
  <atoms>       1 </atoms>
  <types>       1 </types>
  <array name="atoms" >
   <dimension dim="1">ion</dimension>
   <field type="string">element</field>
   <field type="int">atomtype</field>
   <set>
    <rc><c>Si</c><c>   1</c></rc>
   </set>
  </array>
  <array name="atomtypes" >
   <dimension dim="1">type</dimension>
   <field type="int">atomspertype</field>
   <field type="string">element</field>
   <field>mass</field>
   <field>valence</field>
   <field type="string">pseudopotential</field>
   <set>
    <rc><c>   1</c><c>Si</c><c>     28.08500000</c><c>      4.00000000</c><c> PAW Si 02Apr1999                       </c></rc>
   </set>
  </array>
 </atominfo>
 <structure name="initialpos" >
  <crystal>
   <varray name="basis" >
    <v>       1.95000000       1.95000000       0.00000000 </v>
    <v>       0.00000000       1.95000000       1.95000000 </v>
    <v>       1.95000000       0.00000000       1.95000000 </v>
   </varray>
   <i name="volume">     14.82975000 </i>
   <varray name="rec_basis" >
    <v>       0.25641026       0.25641026      -0.25641026 </v>
    <v>      -0.25641026       0.25641026       0.25641026 </v>
    <v>       0.25641026      -0.25641026       0.25641026 </v>
   </varray>
  </crystal>
  <varray name="positions" >
   <v>       0.00000000       0.00000000       0.00000000 </v>
  </varray>
 </structure>
 <calculation>
  <scstep>
   <time name="dav">    0.05    0.05</time>
   <time name="total">    0.05    0.05</time>
   <energy>
    <i name="alphaZ">      1.59850770 </i>
    <i name="ewald">   -135.42777035 </i>
    <i name="hartreedc">     -0.53019300 </i>
    <i name="XCdc">     -8.82565977 </i>
    <i name="pawpsdc">     34.71333461 </i>
    <i name="pawaedc">    -17.31339017 </i>
    <i name="eentropy">     -0.00378293 </i>
    <i name="bandstr">     17.90725278 </i>
    <i name="atom">    103.42762056 </i>
    <i name="e_fr_energy">     -4.45408057 </i>
    <i name="e_wo_entrp">     -4.45029764 </i>
    <i name="e_0_energy">     -4.45218911 </i>
   </energy>
  </scstep>
  <scstep>
   <time name="dav">    0.06    0.06</time>
   <time name="total">    0.06    0.06</time>
   <energy>
    <i name="e_fr_energy">     -5.95927504 </i>
    <i name="e_wo_entrp">     -5.95897039 </i>
    <i name="e_0_energy">     -5.95912271 </i>
   </energy>
  </scstep>
  <scstep>
   <time name="dav">    0.05    0.05</time>
   <time name="total">    0.05    0.05</time>
   <energy>
    <i name="e_fr_energy">     -5.97060491 </i>
    <i name="e_wo_entrp">     -5.97033036 </i>
    <i name="e_0_energy">     -5.97046764 </i>
   </energy>
  </scstep>
  <scstep>
   <time name="dav">    0.06    0.06</time>
   <time name="total">    0.06    0.07</time>
   <energy>
    <i name="e_fr_energy">     -5.97061670 </i>
    <i name="e_wo_entrp">     -5.97034211 </i>
    <i name="e_0_energy">     -5.97047940 </i>
   </energy>
  </scstep>
  <scstep>
   <time name="dav">    0.04    0.04</time>
   <time name="total">    0.04    0.05</time>
   <energy>
    <i name="e_fr_energy">     -5.97061672 </i>
    <i name="e_wo_entrp">     -5.97034213 </i>
    <i name="e_0_energy">     -5.97047943 </i>
   </energy>
  </scstep>
  <scstep>
   <time name="dav">    0.04    0.04</time>
   <time name="total">    0.04    0.04</time>
   <energy>
    <i name="alphaZ">      1.59850770 </i>
    <i name="ewald">   -135.42777035 </i>
    <i name="hartreedc">     -0.53019300 </i>
    <i name="XCdc">     -8.82565977 </i>
    <i name="pawpsdc">     34.71333461 </i>
    <i name="pawaedc">    -17.31339017 </i>
    <i name="eentropy">     -0.00027459 </i>
    <i name="bandstr">     16.38720828 </i>
    <i name="atom">    103.42762056 </i>
    <i name="e_fr_energy">     -5.97061672 </i>
    <i name="e_wo_entrp">     -5.97034213 </i>
    <i name="e_0_energy">     -5.97047943 </i>
   </energy>
  </scstep>
  <structure>
   <crystal>
    <varray name="basis" >
     <v>       1.95000000       1.95000000       0.00000000 </v>
     <v>       0.00000000       1.95000000       1.95000000 </v>
     <v>       1.95000000       0.00000000       1.95000000 </v>
    </varray>
    <i name="volume">     14.82975000 </i>
    <varray name="rec_basis" >
     <v>       0.25641026       0.25641026      -0.25641026 </v>
     <v>      -0.25641026       0.25641026       0.25641026 </v>
     <v>       0.25641026      -0.25641026       0.25641026 </v>
    </varray>
   </crystal>
   <varray name="positions" >
    <v>       0.00000000       0.00000000       0.00000000 </v>
   </varray>
  </structure>
  <varray name="forces" >
   <v>      -0.00000000       0.00000000      -0.00000000 </v>
  </varray>
  <varray name="stress" >
   <v>     -71.96301624      -0.00000000      -0.00000000 </v>
   <v>       0.00000000     -71.96301624       0.00000000 </v>
   <v>       0.00000000      -0.00000000     -71.96301624 </v>
  </varray>
  <energy>
   <i name="e_fr_energy">     -5.97061672 </i>
   <i name="e_wo_entrp">     -5.97047943 </i>
   <i name="e_0_energy">     -0.00027459 </i>
  </energy>
  <time name="totalsc">    0.36    0.39</time>
  <eigenvalues>
   <array>
    <dimension dim="1">band</dimension>
    <dimension dim="2">kpoint</dimension>
    <dimension dim="3">spin</dimension>
    <field>eigene</field>
    <field>occ</field>
    <set>
     <set comment="spin 1">
      <set comment="kpoint 1">
       <r>    2.2867    1.0000 </r>
       <r>    3.0659    1.0000 </r>
       <r>   18.0249    0.0000 </r>
       <r>   18.0249    0.0000 </r>
       <r>   20.7056    0.0000 </r>
       <r>   20.7056    0.0000 </r>
      </set>
      <set comment="kpoint 2">
       <r>    1.1715    1.0000 </r>
       <r>    4.3387    1.0000 </r>
       <r>   18.0192    0.0000 </r>
       <r>   18.0192    0.0000 </r>
       <r>   20.8589    0.0000 </r>
       <r>   20.8589    0.0000 </r>
      </set>
      <set comment="kpoint 3">
       <r>   -0.0977    1.0000 </r>
       <r>    6.0816    1.0000 </r>
       <r>   18.0266    0.0000 </r>
       <r>   18.0266    0.0000 </r>
       <r>   21.2910    0.0000 </r>
       <r>   21.2910    0.0000 </r>
      </set>
      <set comment="kpoint 4">
       <r>   -1.2180    1.0000 </r>
       <r>    7.9861    1.0000 </r>
       <r>   18.0939    0.0000 </r>
       <r>   18.0939    0.0000 </r>
       <r>   21.9405    0.0000 </r>
       <r>   21.9405    0.0000 </r>
      </set>
      <set comment="kpoint 5">
       <r>   -2.1738    1.0000 </r>
       <r>   10.0296    1.0000 </r>
       <r>   18.2531    0.0000 </r>
       <r>   18.2531    0.0000 </r>
       <r>   22.6708    0.0000 </r>
       <r>   22.7280    0.0000 </r>
      </set>
      <set comment="kpoint 6">
       <r>   -2.9591    1.0000 </r>
       <r>   12.1986    1.0000 </r>
       <r>   18.5341    0.0000 </r>
       <r>   18.5341    0.0000 </r>
       <r>   22.7398    0.0000 </r>
       <r>   23.4946    0.0000 </r>
      </set>
      <set comment="kpoint 7">
       <r>   -3.5725    1.0000 </r>
       <r>   14.4677    0.0000 </r>
       <r>   18.9413    0.0000 </r>
       <r>   18.9413    0.0000 </r>
       <r>   22.8272    0.0000 </r>
       <r>   23.7582    0.0000 </r>
      </set>
      <set comment="kpoint 8">
       <r>   -4.0118    1.0000 </r>
       <r>   16.7880    0.0000 </r>
       <r>   19.4697    0.0000 </r>
       <r>   19.4697    0.0000 </r>
       <r>   22.8234    0.0000 </r>
       <r>   23.1394    0.0000 </r>
      </set>
      <set comment="kpoint 9">
       <r>   -4.2760    1.0000 </r>
       <r>   19.0173    0.0000 </r>
       <r>   20.0783    0.0000 </r>
       <r>   20.0783    0.0000 </r>
       <r>   22.2718    0.0000 </r>
       <r>   22.2719    0.0000 </r>
      </set>
      <set comment="kpoint 10">
       <r>   -4.3644    1.0000 </r>
       <r>   20.4797    0.0000 </r>
       <r>   20.4799    0.0000 </r>
       <r>   20.4799    0.0000 </r>
       <r>   21.7250    0.0000 </r>
       <r>   21.7252    0.0000 </r>
      </set>
      <set comment="kpoint 11">
       <r>   -4.3644    1.0000 </r>
       <r>   20.4797    0.0000 </r>
       <r>   20.4799    0.0000 </r>
       <r>   20.4799    0.0000 </r>
       <r>   21.7251    0.0000 </r>
       <r>   21.7252    0.0000 </r>
      </set>
      <set comment="kpoint 12">
       <r>   -4.2465    1.0000 </r>
       <r>   19.3287    0.0000 </r>
       <r>   19.3288    0.0000 </r>
       <r>   20.2015    0.0000 </r>
       <r>   21.1084    0.0000 </r>
       <r>   23.0757    0.0000 </r>
      </set>
      <set comment="kpoint 13">
       <r>   -3.8944    1.0000 </r>
       <r>   17.8787    0.0000 </r>
       <r>   17.8789    0.0000 </r>
       <r>   19.4383    0.0000 </r>
       <r>   19.8029    0.0000 </r>
       <r>   24.6785    0.0000 </r>
      </set>
      <set comment="kpoint 14">
       <r>   -3.3089    1.0000 </r>
       <r>   16.5765    0.0000 </r>
       <r>   16.5766    0.0000 </r>
       <r>   18.2699    0.0000 </r>
       <r>   18.4549    0.0000 </r>
       <r>   21.9458    0.0000 </r>
      </set>
      <set comment="kpoint 15">
       <r>   -2.4920    1.0000 </r>
       <r>   15.4611    0.0000 </r>
       <r>   15.4612    0.0000 </r>
       <r>   16.5651    0.0000 </r>
       <r>   17.2444    0.0000 </r>
       <r>   19.7952    0.0000 </r>
      </set>
      <set comment="kpoint 16">
       <r>   -1.4456    1.0000 </r>
       <r>   14.2906    0.0000 </r>
       <r>   14.5383    0.0000 </r>
       <r>   14.5385    0.0000 </r>
       <r>   16.2047    0.0000 </r>
       <r>   18.4144    0.0000 </r>
      </set>
      <set comment="kpoint 17">
       <r>   -0.1752    1.0000 </r>
       <r>   11.8118    1.0000 </r>
       <r>   13.8205    0.0000 </r>
       <r>   13.8207    0.0000 </r>
       <r>   15.4018    0.0000 </r>
       <r>   17.5195    0.0000 </r>
      </set>
      <set comment="kpoint 18">
       <r>    1.3157    1.0000 </r>
       <r>    9.3830    1.0000 </r>
       <r>   13.3070    0.0000 </r>
       <r>   13.3072    0.0000 </r>
       <r>   14.8261    0.0000 </r>
       <r>   16.9349    0.0000 </r>
      </set>
      <set comment="kpoint 19">
       <r>    3.0114    1.0000 </r>
       <r>    7.1038    1.0000 </r>
       <r>   12.9977    0.0000 </r>
       <r>   12.9978    0.0000 </r>
       <r>   14.4775    0.0000 </r>
       <r>   16.5900    0.0000 </r>
      </set>
      <set comment="kpoint 20">
       <r>    4.6159    1.0000 </r>
       <r>    5.3037    1.0000 </r>
       <r>   12.8945    0.0028 </r>
       <r>   12.8946    0.0028 </r>
       <r>   14.3611    0.0000 </r>
       <r>   16.4802    0.0000 </r>
      </set>
      <set comment="kpoint 21">
       <r>    4.6159    1.0000 </r>
       <r>    5.3037    1.0000 </r>
       <r>   12.8945    0.0028 </r>
       <r>   12.8946    0.0028 </r>
       <r>   14.3611    0.0000 </r>
       <r>   16.4802    0.0000 </r>
      </set>
      <set comment="kpoint 22">
       <r>    4.6297    1.0000 </r>
       <r>    5.3172    1.0000 </r>
       <r>   12.5225    0.9937 </r>
       <r>   12.9074    0.0016 </r>
       <r>   14.6260    0.0000 </r>
       <r>   16.6240    0.0000 </r>
      </set>
      <set comment="kpoint 23">
       <r>    4.6713    1.0000 </r>
       <r>    5.3575    1.0000 </r>
       <r>   11.7946    1.0000 </r>
       <r>   12.9457    0.0002 </r>
       <r>   15.0179    0.0000 </r>
       <r>   17.0700    0.0000 </r>
      </set>
      <set comment="kpoint 24">
       <r>    4.7406    1.0000 </r>
       <r>    5.4241    1.0000 </r>
       <r>   10.9835    1.0000 </r>
       <r>   13.0095    0.0000 </r>
       <r>   15.3014    0.0000 </r>
       <r>   17.7806    0.0000 </r>
      </set>
      <set comment="kpoint 25">
       <r>    4.8375    1.0000 </r>
       <r>    5.5159    1.0000 </r>
       <r>   10.1567    1.0000 </r>
       <r>   13.0988    0.0000 </r>
       <r>   15.5107    0.0000 </r>
       <r>   18.6546    0.0000 </r>
      </set>
      <set comment="kpoint 26">
       <r>    4.9622    1.0000 </r>
       <r>    5.6308    1.0000 </r>
       <r>    9.3378    1.0000 </r>
       <r>   13.2136    0.0000 </r>
       <r>   15.6973    0.0000 </r>
       <r>   19.6172    0.0000 </r>
      </set>
      <set comment="kpoint 27">
       <r>    5.1146    1.0000 </r>
       <r>    5.7633    1.0000 </r>
       <r>    8.5397    1.0000 </r>
       <r>   13.3535    0.0000 </r>
       <r>   15.8873    0.0000 </r>
       <r>   20.6279    0.0000 </r>
      </set>
      <set comment="kpoint 28">
       <r>    5.2949    1.0000 </r>
       <r>    5.8981    1.0000 </r>
       <r>    7.7867    1.0000 </r>
       <r>   13.5187    0.0000 </r>
       <r>   16.0960    0.0000 </r>
       <r>   21.6858    0.0000 </r>
      </set>
      <set comment="kpoint 29">
       <r>    5.5027    1.0000 </r>
       <r>    5.9722    1.0000 </r>
       <r>    7.1417    1.0000 </r>
       <r>   13.7089    0.0000 </r>
       <r>   16.3214    0.0000 </r>
       <r>   22.7504    0.0000 </r>
      </set>
      <set comment="kpoint 30">
       <r>    5.7380    1.0000 </r>
       <r>    5.7576    1.0000 </r>
       <r>    6.8336    1.0000 </r>
       <r>   13.9239    0.0000 </r>
       <r>   16.5611    0.0000 </r>
       <r>   23.8221    0.0000 </r>
      </set>
      <set comment="kpoint 31">
       <r>    5.7380    1.0000 </r>
       <r>    5.7576    1.0000 </r>
       <r>    6.8336    1.0000 </r>
       <r>   13.9239    0.0000 </r>
       <r>   16.5611    0.0000 </r>
       <r>   23.8221    0.0000 </r>
      </set>
      <set comment="kpoint 32">
       <r>    3.8840    1.0000 </r>
       <r>    6.6100    1.0000 </r>
       <r>    7.4473    1.0000 </r>
       <r>   14.7167    0.0000 </r>
       <r>   17.4560    0.0000 </r>
       <r>   27.0003    0.0000 </r>
      </set>
      <set comment="kpoint 33">
       <r>    2.0021    1.0000 </r>
       <r>    7.7290    1.0000 </r>
       <r>    8.5323    1.0000 </r>
       <r>   15.7194    0.0000 </r>
       <r>   18.5722    0.0000 </r>
       <r>   26.9648    0.0000 </r>
      </set>
      <set comment="kpoint 34">
       <r>    0.3376    1.0000 </r>
       <r>    9.0907    1.0000 </r>
       <r>    9.8625    1.0000 </r>
       <r>   16.9070    0.0000 </r>
       <r>   19.8947    0.0000 </r>
       <r>   25.6817    0.0000 </r>
      </set>
      <set comment="kpoint 35">
       <r>   -1.0860    1.0000 </r>
       <r>   10.6921    1.0000 </r>
       <r>   11.4062    1.0000 </r>
       <r>   18.2158    0.0000 </r>
       <r>   21.3943    0.0000 </r>
       <r>   24.6888    0.0000 </r>
      </set>
      <set comment="kpoint 36">
       <r>   -2.2602    1.0000 </r>
       <r>   12.5244    0.9932 </r>
       <r>   13.1385    0.0000 </r>
       <r>   19.4889    0.0000 </r>
       <r>   23.0148    0.0000 </r>
       <r>   23.7881    0.0000 </r>
      </set>
      <set comment="kpoint 37">
       <r>   -3.1778    1.0000 </r>
       <r>   14.5660    0.0000 </r>
       <r>   15.0241    0.0000 </r>
       <r>   20.3232    0.0000 </r>
       <r>   22.8999    0.0000 </r>
       <r>   23.8752    0.0000 </r>
      </set>
      <set comment="kpoint 38">
       <r>   -3.8359    1.0000 </r>
       <r>   16.7792    0.0000 </r>
       <r>   17.0183    0.0000 </r>
       <r>   20.5480    0.0000 </r>
       <r>   22.2649    0.0000 </r>
       <r>   23.2053    0.0000 </r>
      </set>
      <set comment="kpoint 39">
       <r>   -4.2319    1.0000 </r>
       <r>   18.9964    0.0000 </r>
       <r>   19.0199    0.0000 </r>
       <r>   20.5138    0.0000 </r>
       <r>   21.8821    0.0000 </r>
       <r>   22.5172    0.0000 </r>
      </set>
      <set comment="kpoint 40">
       <r>   -4.3644    1.0000 </r>
       <r>   20.4797    0.0000 </r>
       <r>   20.4799    0.0000 </r>
       <r>   20.4799    0.0000 </r>
       <r>   21.7251    0.0000 </r>
       <r>   21.7252    0.0000 </r>
      </set>
     </set>
    </set>
   </array>
  </eigenvalues>
  <separator name="orbital magnetization" >
   <v name="MAGDIPOLOUT">      0.00000000      0.00000000      0.00000000</v>
  </separator>
  <dos>
   <i name="efermi">     12.69879761 </i>
   <total>
    <array>
     <dimension dim="1">gridpoints</dimension>
     <dimension dim="2">spin</dimension>
     <field>energy</field>
     <field>total</field>
     <field>integrated</field>
     <set>
      <set comment="spin 1">
       <r>    -5.9326     0.0000     0.0000 </r>
       <r>    -5.8176     0.0000     0.0000 </r>
       <r>    -5.7026     0.0000     0.0000 </r>
       <r>    -5.5876     0.0000     0.0000 </r>
       <r>    -5.4726     0.0000     0.0000 </r>
       <r>    -5.3576     0.0000     0.0000 </r>
       <r>    -5.2426     0.0000     0.0000 </r>
       <r>    -5.1276     0.0000     0.0000 </r>
       <r>    -5.0126     0.0000     0.0000 </r>
       <r>    -4.8976     0.0000     0.0000 </r>
       <r>    -4.7826     0.0000     0.0000 </r>
       <r>    -4.6676     0.0000     0.0000 </r>
       <r>    -4.5526     0.0051     0.0006 </r>
       <r>    -4.4376     0.1981     0.0234 </r>
       <r>    -4.3226     0.9553     0.1332 </r>
       <r>    -4.2076     1.0763     0.2570 </r>
       <r>    -4.0926     0.4110     0.3043 </r>
       <r>    -3.9776     0.3229     0.3414 </r>
       <r>    -3.8626     0.5136     0.4005 </r>
       <r>    -3.7476     0.3793     0.4441 </r>
       <r>    -3.6326     0.1364     0.4598 </r>
       <r>    -3.5175     0.2553     0.4891 </r>
       <r>    -3.4025     0.1315     0.5043 </r>
       <r>    -3.2875     0.2581     0.5340 </r>
       <r>    -3.1725     0.3586     0.5752 </r>
       <r>    -3.0575     0.2319     0.6019 </r>
       <r>    -2.9425     0.2413     0.6296 </r>
       <r>    -2.8275     0.1636     0.6484 </r>
       <r>    -2.7125     0.0139     0.6500 </r>
       <r>    -2.5975     0.0292     0.6534 </r>
       <r>    -2.4825     0.2114     0.6777 </r>
       <r>    -2.3675     0.2062     0.7014 </r>
       <r>    -2.2525     0.2814     0.7338 </r>
       <r>    -2.1375     0.4256     0.7827 </r>
       <r>    -2.0225     0.1429     0.7992 </r>
       <r>    -1.9075     0.0072     0.8000 </r>
       <r>    -1.7925     0.0000     0.8000 </r>
       <r>    -1.6775     0.0002     0.8000 </r>
       <r>    -1.5625     0.0211     0.8025 </r>
       <r>    -1.4475     0.1916     0.8245 </r>
       <r>    -1.3325     0.2210     0.8499 </r>
       <r>    -1.2175     0.2329     0.8767 </r>
       <r>    -1.1025     0.3578     0.9178 </r>
       <r>    -0.9875     0.2439     0.9459 </r>
       <r>    -0.8725     0.0352     0.9499 </r>
       <r>    -0.7575     0.0005     0.9500 </r>
       <r>    -0.6425     0.0000     0.9500 </r>
       <r>    -0.5275     0.0000     0.9500 </r>
       <r>    -0.4124     0.0002     0.9500 </r>
       <r>    -0.2974     0.0191     0.9522 </r>
       <r>    -0.1824     0.2306     0.9787 </r>
       <r>    -0.0674     0.4466     1.0301 </r>
       <r>     0.0476     0.1641     1.0490 </r>
       <r>     0.1626     0.0119     1.0503 </r>
       <r>     0.2776     0.0832     1.0599 </r>
       <r>     0.3926     0.2537     1.0891 </r>
       <r>     0.5076     0.0914     1.0996 </r>
       <r>     0.6226     0.0035     1.1000 </r>
       <r>     0.7376     0.0000     1.1000 </r>
       <r>     0.8526     0.0000     1.1000 </r>
       <r>     0.9676     0.0009     1.1001 </r>
       <r>     1.0826     0.0447     1.1052 </r>
       <r>     1.1976     0.2551     1.1346 </r>
       <r>     1.3126     0.3340     1.1730 </r>
       <r>     1.4276     0.2102     1.1972 </r>
       <r>     1.5426     0.0244     1.2000 </r>
       <r>     1.6576     0.0003     1.2000 </r>
       <r>     1.7726     0.0003     1.2000 </r>
       <r>     1.8876     0.0227     1.2026 </r>
       <r>     2.0026     0.1958     1.2252 </r>
       <r>     2.1176     0.1975     1.2479 </r>
       <r>     2.2326     0.1149     1.2611 </r>
       <r>     2.3476     0.2539     1.2903 </r>
       <r>     2.4626     0.0818     1.2997 </r>
       <r>     2.5777     0.0028     1.3000 </r>
       <r>     2.6927     0.0000     1.3000 </r>
       <r>     2.8077     0.0009     1.3001 </r>
       <r>     2.9227     0.0539     1.3063 </r>
       <r>     3.0377     0.3754     1.3495 </r>
       <r>     3.1527     0.3816     1.3934 </r>
       <r>     3.2677     0.0567     1.3999 </r>
       <r>     3.3827     0.0010     1.4000 </r>
       <r>     3.4977     0.0000     1.4000 </r>
       <r>     3.6127     0.0000     1.4000 </r>
       <r>     3.7277     0.0059     1.4007 </r>
       <r>     3.8427     0.1156     1.4140 </r>
       <r>     3.9577     0.2486     1.4426 </r>
       <r>     4.0727     0.0630     1.4498 </r>
       <r>     4.1877     0.0087     1.4508 </r>
       <r>     4.3027     0.1256     1.4653 </r>
       <r>     4.4177     0.2475     1.4937 </r>
       <r>     4.5327     0.2059     1.5174 </r>
       <r>     4.6477     0.8988     1.6208 </r>
       <r>     4.7627     0.9518     1.7302 </r>
       <r>     4.8777     0.5211     1.7902 </r>
       <r>     4.9927     0.3878     1.8348 </r>
       <r>     5.1077     0.3295     1.8727 </r>
       <r>     5.2227     0.4396     1.9232 </r>
       <r>     5.3377     1.2016     2.0614 </r>
       <r>     5.4527     1.1726     2.1962 </r>
       <r>     5.5677     0.8060     2.2889 </r>
       <r>     5.6828     0.7947     2.3803 </r>
       <r>     5.7978     1.3858     2.5397 </r>
       <r>     5.9128     0.8424     2.6366 </r>
       <r>     6.0278     0.5400     2.6987 </r>
       <r>     6.1428     0.3585     2.7399 </r>
       <r>     6.2578     0.0848     2.7497 </r>
       <r>     6.3728     0.0029     2.7500 </r>
       <r>     6.4878     0.0181     2.7521 </r>
       <r>     6.6028     0.1820     2.7730 </r>
       <r>     6.7178     0.2510     2.8019 </r>
       <r>     6.8328     0.4140     2.8495 </r>
       <r>     6.9478     0.4002     2.8955 </r>
       <r>     7.0628     0.2180     2.9206 </r>
       <r>     7.1778     0.4937     2.9774 </r>
       <r>     7.2928     0.1944     2.9997 </r>
       <r>     7.4078     0.1278     3.0144 </r>
       <r>     7.5228     0.2482     3.0430 </r>
       <r>     7.6378     0.1102     3.0556 </r>
       <r>     7.7528     0.3633     3.0974 </r>
       <r>     7.8678     0.4123     3.1448 </r>
       <r>     7.9828     0.2530     3.1739 </r>
       <r>     8.0978     0.2018     3.1972 </r>
       <r>     8.2128     0.0245     3.2000 </r>
       <r>     8.3278     0.0017     3.2002 </r>
       <r>     8.4428     0.0804     3.2094 </r>
       <r>     8.5578     0.4583     3.2621 </r>
       <r>     8.6728     0.3063     3.2973 </r>
       <r>     8.7879     0.0230     3.3000 </r>
       <r>     8.9029     0.0019     3.3002 </r>
       <r>     9.0179     0.0641     3.3076 </r>
       <r>     9.1329     0.2500     3.3363 </r>
       <r>     9.2479     0.1696     3.3558 </r>
       <r>     9.3629     0.3956     3.4013 </r>
       <r>     9.4779     0.3739     3.4443 </r>
       <r>     9.5929     0.0487     3.4499 </r>
       <r>     9.7079     0.0069     3.4507 </r>
       <r>     9.8229     0.1196     3.4645 </r>
       <r>     9.9379     0.2895     3.4978 </r>
       <r>    10.0529     0.3224     3.5348 </r>
       <r>    10.1679     0.3657     3.5769 </r>
       <r>    10.2829     0.1847     3.5981 </r>
       <r>    10.3979     0.0161     3.6000 </r>
       <r>    10.5129     0.0026     3.6003 </r>
       <r>    10.6279     0.0766     3.6091 </r>
       <r>    10.7429     0.2531     3.6382 </r>
       <r>    10.8579     0.1149     3.6514 </r>
       <r>    10.9729     0.1792     3.6720 </r>
       <r>    11.0879     0.2129     3.6965 </r>
       <r>    11.2029     0.0308     3.7001 </r>
       <r>    11.3179     0.0456     3.7053 </r>
       <r>    11.4329     0.2354     3.7324 </r>
       <r>    11.5479     0.1437     3.7489 </r>
       <r>    11.6629     0.0309     3.7524 </r>
       <r>    11.7779     0.2931     3.7862 </r>
       <r>    11.8930     0.4649     3.8396 </r>
       <r>    12.0080     0.0900     3.8500 </r>
       <r>    12.1230     0.0621     3.8571 </r>
       <r>    12.2380     0.2473     3.8856 </r>
       <r>    12.3530     0.1262     3.9001 </r>
       <r>    12.4680     0.1876     3.9216 </r>
       <r>    12.5830     0.5076     3.9800 </r>
       <r>    12.6980     0.1734     4.0000 </r>
       <r>    12.8130     0.2746     4.0315 </r>
       <r>    12.9280     1.5525     4.2101 </r>
       <r>    13.0430     1.7764     4.4144 </r>
       <r>    13.1580     1.0130     4.5309 </r>
       <r>    13.2730     0.8277     4.6261 </r>
       <r>    13.3880     0.8429     4.7230 </r>
       <r>    13.5030     0.4049     4.7696 </r>
       <r>    13.6180     0.2748     4.8012 </r>
       <r>    13.7330     0.3614     4.8427 </r>
       <r>    13.8480     0.7417     4.9280 </r>
       <r>    13.9630     0.7892     5.0188 </r>
       <r>    14.0780     0.2592     5.0486 </r>
       <r>    14.1930     0.0563     5.0551 </r>
       <r>    14.3080     0.4221     5.1036 </r>
       <r>    14.4230     0.9248     5.2100 </r>
       <r>    14.5380     1.2550     5.3543 </r>
       <r>    14.6530     1.0996     5.4807 </r>
       <r>    14.7680     0.5791     5.5473 </r>
       <r>    14.8830     0.3847     5.5916 </r>
       <r>    14.9981     0.3941     5.6369 </r>
       <r>    15.1131     0.4662     5.6905 </r>
       <r>    15.2281     0.1495     5.7077 </r>
       <r>    15.3431     0.3803     5.7515 </r>
       <r>    15.4581     0.8429     5.8484 </r>
       <r>    15.5731     0.7743     5.9374 </r>
       <r>    15.6881     0.4449     5.9886 </r>
       <r>    15.8031     0.5039     6.0465 </r>
       <r>    15.9181     0.3216     6.0835 </r>
       <r>    16.0331     0.2192     6.1087 </r>
       <r>    16.1481     0.3535     6.1494 </r>
       <r>    16.2631     0.4371     6.1997 </r>
       <r>    16.3781     0.4162     6.2475 </r>
       <r>    16.4931     0.8835     6.3491 </r>
       <r>    16.6081     1.9734     6.5761 </r>
       <r>    16.7231     1.1712     6.7108 </r>
       <r>    16.8381     0.6945     6.7906 </r>
       <r>    16.9531     0.7574     6.8778 </r>
       <r>    17.0681     0.7214     6.9607 </r>
       <r>    17.1831     0.3974     7.0064 </r>
       <r>    17.2981     0.2874     7.0395 </r>
       <r>    17.4131     0.2351     7.0665 </r>
       <r>    17.5281     0.4630     7.1198 </r>
       <r>    17.6431     0.2554     7.1491 </r>
       <r>    17.7581     0.2091     7.1732 </r>
       <r>    17.8731     0.6436     7.2472 </r>
       <r>    17.9882     1.2692     7.3931 </r>
       <r>    18.1032     1.9811     7.6210 </r>
       <r>    18.2182     1.2408     7.7637 </r>
       <r>    18.3332     1.0465     7.8840 </r>
       <r>    18.4482     0.7471     7.9699 </r>
       <r>    18.5632     1.0378     8.0893 </r>
       <r>    18.6782     0.7548     8.1761 </r>
       <r>    18.7932     0.2139     8.2007 </r>
       <r>    18.9082     0.3697     8.2432 </r>
       <r>    19.0232     1.1255     8.3726 </r>
       <r>    19.1382     0.6242     8.4444 </r>
       <r>    19.2532     0.1751     8.4646 </r>
       <r>    19.3682     0.6467     8.5389 </r>
       <r>    19.4832     1.1205     8.6678 </r>
       <r>    19.5982     0.8262     8.7628 </r>
       <r>    19.7132     0.3852     8.8071 </r>
       <r>    19.8282     0.5871     8.8746 </r>
       <r>    19.9432     0.5547     8.9384 </r>
       <r>    20.0582     0.4432     8.9894 </r>
       <r>    20.1732     0.6064     9.0591 </r>
       <r>    20.2882     0.4548     9.1114 </r>
       <r>    20.4032     0.8580     9.2101 </r>
       <r>    20.5182     2.6444     9.5142 </r>
       <r>    20.6332     1.8514     9.7271 </r>
       <r>    20.7482     0.8609     9.8261 </r>
       <r>    20.8632     0.6522     9.9012 </r>
       <r>    20.9782     0.3992     9.9471 </r>
       <r>    21.0933     0.2078     9.9710 </r>
       <r>    21.2083     0.3250    10.0083 </r>
       <r>    21.3233     0.5829    10.0754 </r>
       <r>    21.4383     0.5167    10.1348 </r>
       <r>    21.5533     0.1597    10.1532 </r>
       <r>    21.6683     0.6973    10.2334 </r>
       <r>    21.7833     1.7973    10.4400 </r>
       <r>    21.8983     1.1070    10.5674 </r>
       <r>    22.0133     0.9339    10.6748 </r>
       <r>    22.1283     0.2439    10.7028 </r>
       <r>    22.2433     0.4394    10.7533 </r>
       <r>    22.3583     0.7092    10.8349 </r>
       <r>    22.4733     0.2464    10.8632 </r>
       <r>    22.5883     0.3270    10.9008 </r>
       <r>    22.7033     0.7231    10.9840 </r>
       <r>    22.8183     1.2817    11.1314 </r>
       <r>    22.9333     0.8981    11.2347 </r>
       <r>    23.0483     0.6219    11.3062 </r>
       <r>    23.1633     0.7213    11.3892 </r>
       <r>    23.2783     0.4522    11.4412 </r>
       <r>    23.3933     0.1081    11.4536 </r>
       <r>    23.5083     0.2196    11.4789 </r>
       <r>    23.6233     0.1878    11.5004 </r>
       <r>    23.7383     0.3841    11.5446 </r>
       <r>    23.8533     1.1129    11.6726 </r>
       <r>    23.9683     0.6123    11.7430 </r>
       <r>    24.0833     0.0598    11.7499 </r>
       <r>    24.1984     0.0008    11.7500 </r>
       <r>    24.3134     0.0000    11.7500 </r>
       <r>    24.4284     0.0001    11.7500 </r>
       <r>    24.5434     0.0207    11.7524 </r>
       <r>    24.6584     0.2929    11.7861 </r>
       <r>    24.7734     0.4664    11.8397 </r>
       <r>    24.8884     0.0877    11.8498 </r>
       <r>    25.0034     0.0017    11.8500 </r>
       <r>    25.1184     0.0000    11.8500 </r>
       <r>    25.2334     0.0000    11.8500 </r>
       <r>    25.3484     0.0000    11.8500 </r>
       <r>    25.4634     0.0004    11.8501 </r>
       <r>    25.5784     0.0308    11.8536 </r>
       <r>    25.6934     0.2146    11.8783 </r>
       <r>    25.8084     0.1730    11.8982 </r>
       <r>    25.9234     0.0158    11.9000 </r>
       <r>    26.0384     0.0001    11.9000 </r>
       <r>    26.1534     0.0000    11.9000 </r>
       <r>    26.2684     0.0000    11.9000 </r>
       <r>    26.3834     0.0000    11.9000 </r>
       <r>    26.4984     0.0000    11.9000 </r>
       <r>    26.6134     0.0000    11.9000 </r>
       <r>    26.7284     0.0002    11.9000 </r>
       <r>    26.8434     0.0243    11.9028 </r>
       <r>    26.9584     0.2979    11.9371 </r>
       <r>    27.0734     0.4548    11.9894 </r>
       <r>    27.1884     0.0903    11.9998 </r>
       <r>    27.3035     0.0020    12.0000 </r>
       <r>    27.4185     0.0000    12.0000 </r>
       <r>    27.5335     0.0000    12.0000 </r>
       <r>    27.6485     0.0000    12.0000 </r>
       <r>    27.7635     0.0000    12.0000 </r>
       <r>    27.8785     0.0000    12.0000 </r>
       <r>    27.9935     0.0000    12.0000 </r>
       <r>    28.1085     0.0000    12.0000 </r>
       <r>    28.2235     0.0000    12.0000 </r>
       <r>    28.3385     0.0000    12.0000 </r>
       <r>    28.4535     0.0000    12.0000 </r>
       <r>    28.5685     0.0000    12.0000 </r>
      </set>
     </set>
    </array>
   </total>
   <partial>
    <array>
     <dimension dim="1">gridpoints</dimension>
     <dimension dim="2">spin</dimension>
     <dimension dim="3">ion</dimension>
     <field>energy</field>
     <field>  s</field>
     <field> py</field>
     <field> pz</field>
     <field> px</field>
     <field>dxy</field>
     <field>dyz</field>
     <field>dz2</field>
     <field>dxz</field>
     <field>dx2</field>
     <set>
      <set comment="ion 1">
       <set comment="spin 1">
        <r>    -5.9326     0.0000     0.0000     0.0000     0.0000     0.0000     0.0000     0.0000     0.0000     0.0000 </r>
        <r>    -5.8176     0.0000     0.0000     0.0000     0.0000     0.0000     0.0000     0.0000     0.0000     0.0000 </r>
        <r>    -5.7026     0.0000     0.0000     0.0000     0.0000     0.0000     0.0000     0.0000     0.0000     0.0000 </r>
        <r>    -5.5876     0.0000     0.0000     0.0000     0.0000     0.0000     0.0000     0.0000     0.0000     0.0000 </r>
        <r>    -5.4726     0.0000     0.0000     0.0000     0.0000     0.0000     0.0000     0.0000     0.0000     0.0000 </r>
        <r>    -5.3576     0.0000     0.0000     0.0000     0.0000     0.0000     0.0000     0.0000     0.0000     0.0000 </r>
        <r>    -5.2426     0.0000     0.0000     0.0000     0.0000     0.0000     0.0000     0.0000     0.0000     0.0000 </r>
        <r>    -5.1276     0.0000     0.0000     0.0000     0.0000     0.0000     0.0000     0.0000     0.0000     0.0000 </r>
        <r>    -5.0126     0.0000     0.0000     0.0000     0.0000     0.0000     0.0000     0.0000     0.0000     0.0000 </r>
        <r>    -4.8976     0.0000     0.0000     0.0000     0.0000     0.0000     0.0000     0.0000     0.0000     0.0000 </r>
        <r>    -4.7826     0.0000     0.0000     0.0000     0.0000     0.0000     0.0000     0.0000     0.0000     0.0000 </r>
        <r>    -4.6676     0.0000     0.0000     0.0000     0.0000     0.0000     0.0000     0.0000     0.0000     0.0000 </r>
        <r>    -4.5526     0.0020     0.0000     0.0000     0.0000     0.0000     0.0000     0.0000     0.0000     0.0000 </r>
        <r>    -4.4376     0.0768     0.0000     0.0000     0.0000     0.0000     0.0000     0.0000     0.0000     0.0000 </r>
        <r>    -4.3226     0.3700     0.0002     0.0003     0.0001     0.0000     0.0000     0.0000     0.0000     0.0000 </r>
        <r>    -4.2076     0.4159     0.0006     0.0014     0.0002     0.0000     0.0000     0.0000     0.0000     0.0000 </r>
        <r>    -4.0926     0.1583     0.0005     0.0009     0.0002     0.0000     0.0000     0.0000     0.0000     0.0000 </r>
        <r>    -3.9776     0.1228     0.0008     0.0015     0.0007     0.0000     0.0000     0.0000     0.0000     0.0000 </r>
        <r>    -3.8626     0.1942     0.0014     0.0043     0.0004     0.0000     0.0000     0.0000     0.0000     0.0000 </r>
        <r>    -3.7476     0.1430     0.0016     0.0032     0.0000     0.0000     0.0000     0.0000     0.0000     0.0000 </r>
        <r>    -3.6326     0.0509     0.0009     0.0010     0.0006     0.0000     0.0000     0.0000     0.0000     0.0000 </r>
        <r>    -3.5175     0.0946     0.0017     0.0017     0.0017     0.0000     0.0000     0.0000     0.0000     0.0000 </r>
        <r>    -3.4025     0.0485     0.0006     0.0017     0.0006     0.0000     0.0000     0.0000     0.0000     0.0000 </r>
        <r>    -3.2875     0.0941     0.0004     0.0065     0.0000     0.0000     0.0000     0.0000     0.0000     0.0000 </r>
        <r>    -3.1725     0.1302     0.0030     0.0071     0.0000     0.0000     0.0000     0.0000     0.0000     0.0000 </r>
        <r>    -3.0575     0.0838     0.0031     0.0034     0.0004     0.0000     0.0000     0.0000     0.0000     0.0000 </r>
        <r>    -2.9425     0.0864     0.0028     0.0028     0.0025     0.0000     0.0000     0.0000     0.0000     0.0000 </r>
        <r>    -2.8275     0.0585     0.0019     0.0019     0.0019     0.0000     0.0000     0.0000     0.0000     0.0000 </r>
        <r>    -2.7125     0.0050     0.0002     0.0002     0.0002     0.0000     0.0000     0.0000     0.0000     0.0000 </r>
        <r>    -2.5975     0.0101     0.0000     0.0013     0.0000     0.0000     0.0000     0.0000     0.0000     0.0000 </r>
        <r>    -2.4825     0.0733     0.0000     0.0098     0.0000     0.0000     0.0000     0.0000     0.0000     0.0000 </r>
        <r>    -2.3675     0.0714     0.0007     0.0089     0.0000     0.0000     0.0000     0.0000     0.0000     0.0000 </r>
        <r>    -2.2525     0.0965     0.0062     0.0070     0.0010     0.0000     0.0000     0.0000     0.0000     0.0000 </r>
        <r>    -2.1375     0.1457     0.0087     0.0088     0.0042     0.0000     0.0000     0.0000     0.0000     0.0000 </r>
        <r>    -2.0225     0.0489     0.0026     0.0026     0.0021     0.0000     0.0000     0.0000     0.0000     0.0000 </r>
        <r>    -1.9075     0.0025     0.0001     0.0001     0.0001     0.0000     0.0000     0.0000     0.0000     0.0000 </r>
        <r>    -1.7925     0.0000     0.0000     0.0000     0.0000     0.0000     0.0000     0.0000     0.0000     0.0000 </r>
        <r>    -1.6775     0.0001     0.0000     0.0000     0.0000     0.0000     0.0000     0.0000     0.0000     0.0000 </r>
        <r>    -1.5625     0.0069     0.0000     0.0015     0.0000     0.0000     0.0000     0.0000     0.0000     0.0000 </r>
        <r>    -1.4475     0.0622     0.0000     0.0136     0.0000     0.0000     0.0000     0.0000     0.0000     0.0000 </r>
        <r>    -1.3325     0.0718     0.0005     0.0146     0.0005     0.0000     0.0000     0.0000     0.0000     0.0000 </r>
        <r>    -1.2175     0.0759     0.0051     0.0068     0.0046     0.0000     0.0000     0.0000     0.0000     0.0000 </r>
        <r>    -1.1025     0.1159     0.0108     0.0108     0.0046     0.0000     0.0000     0.0000     0.0000     0.0000 </r>
        <r>    -0.9875     0.0784     0.0089     0.0089     0.0005     0.0000     0.0000     0.0000     0.0000     0.0000 </r>
        <r>    -0.8725     0.0113     0.0013     0.0013     0.0000     0.0000     0.0000     0.0000     0.0000     0.0000 </r>
        <r>    -0.7575     0.0002     0.0000     0.0000     0.0000     0.0000     0.0000     0.0000     0.0000     0.0000 </r>
        <r>    -0.6425     0.0000     0.0000     0.0000     0.0000     0.0000     0.0000     0.0000     0.0000     0.0000 </r>
        <r>    -0.5275     0.0000     0.0000     0.0000     0.0000     0.0000     0.0000     0.0000     0.0000     0.0000 </r>
        <r>    -0.4124     0.0001     0.0000     0.0000     0.0000     0.0000     0.0000     0.0000     0.0000     0.0000 </r>
        <r>    -0.2974     0.0057     0.0000     0.0018     0.0000     0.0000     0.0000     0.0000     0.0000     0.0000 </r>
        <r>    -0.1824     0.0694     0.0015     0.0195     0.0015     0.0000     0.0000     0.0000     0.0000     0.0000 </r>
        <r>    -0.0674     0.1364     0.0071     0.0278     0.0071     0.0000     0.0000     0.0000     0.0000     0.0000 </r>
        <r>     0.0476     0.0508     0.0041     0.0068     0.0041     0.0000     0.0000     0.0000     0.0000     0.0000 </r>
        <r>     0.1626     0.0037     0.0004     0.0004     0.0003     0.0000     0.0000     0.0000     0.0000     0.0000 </r>
        <r>     0.2776     0.0248     0.0043     0.0043     0.0000     0.0000     0.0000     0.0000     0.0000     0.0000 </r>
        <r>     0.3926     0.0755     0.0130     0.0130     0.0000     0.0000     0.0000     0.0000     0.0000     0.0000 </r>
        <r>     0.5076     0.0272     0.0047     0.0047     0.0000     0.0000     0.0000     0.0000     0.0000     0.0000 </r>
        <r>     0.6226     0.0010     0.0002     0.0002     0.0000     0.0000     0.0000     0.0000     0.0000     0.0000 </r>
        <r>     0.7376     0.0000     0.0000     0.0000     0.0000     0.0000     0.0000     0.0000     0.0000     0.0000 </r>
        <r>     0.8526     0.0000     0.0000     0.0000     0.0000     0.0000     0.0000     0.0000     0.0000     0.0000 </r>
        <r>     0.9676     0.0003     0.0000     0.0000     0.0000     0.0000     0.0000     0.0000     0.0000     0.0000 </r>
        <r>     1.0826     0.0140     0.0014     0.0014     0.0014     0.0000     0.0000     0.0000     0.0000     0.0000 </r>
        <r>     1.1976     0.0789     0.0075     0.0102     0.0075     0.0000     0.0000     0.0000     0.0000     0.0000 </r>
        <r>     1.3126     0.0958     0.0046     0.0300     0.0046     0.0000     0.0000     0.0000     0.0000     0.0000 </r>
        <r>     1.4276     0.0565     0.0003     0.0272     0.0003     0.0000     0.0000     0.0000     0.0000     0.0000 </r>
        <r>     1.5426     0.0065     0.0000     0.0033     0.0000     0.0000     0.0000     0.0000     0.0000     0.0000 </r>
        <r>     1.6576     0.0001     0.0000     0.0000     0.0000     0.0000     0.0000     0.0000     0.0000     0.0000 </r>
        <r>     1.7726     0.0001     0.0000     0.0000     0.0000     0.0000     0.0000     0.0000     0.0000     0.0000 </r>
        <r>     1.8876     0.0063     0.0015     0.0015     0.0000     0.0000     0.0000     0.0000     0.0000     0.0000 </r>
        <r>     2.0026     0.0542     0.0127     0.0127     0.0000     0.0000     0.0000     0.0000     0.0000     0.0000 </r>
        <r>     2.1176     0.0553     0.0125     0.0125     0.0000     0.0000     0.0000     0.0000     0.0000     0.0000 </r>
        <r>     2.2326     0.0488     0.0014     0.0014     0.0000     0.0000     0.0000     0.0000     0.0000     0.0000 </r>
        <r>     2.3476     0.1167     0.0000     0.0000     0.0000     0.0000     0.0000     0.0000     0.0000     0.0000 </r>
        <r>     2.4626     0.0376     0.0000     0.0000     0.0000     0.0000     0.0000     0.0000     0.0000     0.0000 </r>
        <r>     2.5777     0.0013     0.0000     0.0000     0.0000     0.0000     0.0000     0.0000     0.0000     0.0000 </r>
        <r>     2.6927     0.0000     0.0000     0.0000     0.0000     0.0000     0.0000     0.0000     0.0000     0.0000 </r>
        <r>     2.8077     0.0002     0.0000     0.0002     0.0000     0.0000     0.0000     0.0000     0.0000     0.0000 </r>
        <r>     2.9227     0.0098     0.0010     0.0090     0.0010     0.0000     0.0000     0.0000     0.0000     0.0000 </r>
        <r>     3.0377     0.0517     0.0151     0.0571     0.0151     0.0000     0.0000     0.0000     0.0000     0.0000 </r>
        <r>     3.1527     0.0318     0.0254     0.0513     0.0254     0.0000     0.0000     0.0000     0.0000     0.0000 </r>
        <r>     3.2677     0.0022     0.0050     0.0068     0.0050     0.0000     0.0000     0.0000     0.0000     0.0000 </r>
        <r>     3.3827     0.0000     0.0001     0.0001     0.0001     0.0000     0.0000     0.0000     0.0000     0.0000 </r>
        <r>     3.4977     0.0000     0.0000     0.0000     0.0000     0.0000     0.0000     0.0000     0.0000     0.0000 </r>
        <r>     3.6127     0.0000     0.0000     0.0000     0.0000     0.0000     0.0000     0.0000     0.0000     0.0000 </r>
        <r>     3.7277     0.0016     0.0004     0.0004     0.0000     0.0000     0.0000     0.0000     0.0000     0.0000 </r>
        <r>     3.8427     0.0317     0.0084     0.0084     0.0000     0.0000     0.0000     0.0000     0.0000     0.0000 </r>
        <r>     3.9577     0.0682     0.0181     0.0181     0.0000     0.0000     0.0000     0.0000     0.0000     0.0000 </r>
        <r>     4.0727     0.0173     0.0046     0.0046     0.0000     0.0000     0.0000     0.0000     0.0000     0.0000 </r>
        <r>     4.1877     0.0015     0.0007     0.0007     0.0005     0.0000     0.0000     0.0000     0.0000     0.0000 </r>
        <r>     4.3027     0.0183     0.0094     0.0094     0.0094     0.0000     0.0000     0.0000     0.0000     0.0000 </r>
        <r>     4.4177     0.0356     0.0184     0.0194     0.0184     0.0000     0.0000     0.0000     0.0000     0.0000 </r>
        <r>     4.5327     0.0082     0.0042     0.0580     0.0042     0.0000     0.0000     0.0000     0.0000     0.0000 </r>
        <r>     4.6477     0.0002     0.0001     0.3224     0.0001     0.0000     0.0000     0.0000     0.0000     0.0000 </r>
        <r>     4.7627     0.0000     0.0000     0.3413     0.0000     0.0000     0.0000     0.0000     0.0000     0.0000 </r>
        <r>     4.8777     0.0000     0.0000     0.1861     0.0000     0.0000     0.0000     0.0000     0.0000     0.0000 </r>
        <r>     4.9927     0.0000     0.0000     0.1378     0.0000     0.0000     0.0000     0.0000     0.0000     0.0000 </r>
        <r>     5.1077     0.0015     0.0000     0.1155     0.0000     0.0000     0.0000     0.0000     0.0000     0.0000 </r>
        <r>     5.2227     0.0742     0.0000     0.0989     0.0000     0.0000     0.0000     0.0000     0.0000     0.0000 </r>
        <r>     5.3377     0.4292     0.0002     0.0987     0.0002     0.0000     0.0000     0.0000     0.0000     0.0000 </r>
        <r>     5.4527     0.4478     0.0008     0.0747     0.0008     0.0000     0.0000     0.0000     0.0000     0.0000 </r>
        <r>     5.5677     0.2541     0.0013     0.0913     0.0024     0.0000     0.0000     0.0000     0.0000     0.0000 </r>
        <r>     5.6828     0.2537     0.0051     0.0597     0.0347     0.0000     0.0000     0.0000     0.0000     0.0000 </r>
        <r>     5.7978     0.4131     0.0164     0.0963     0.0967     0.0000     0.0000     0.0000     0.0000     0.0000 </r>
        <r>     5.9128     0.3310     0.0084     0.0329     0.0337     0.0000     0.0000     0.0000     0.0000     0.0000 </r>
        <r>     6.0278     0.2459     0.0081     0.0084     0.0089     0.0000     0.0000     0.0000     0.0000     0.0000 </r>
        <r>     6.1428     0.0929     0.0196     0.0195     0.0196     0.0000     0.0000     0.0000     0.0000     0.0000 </r>
        <r>     6.2578     0.0136     0.0063     0.0063     0.0063     0.0000     0.0000     0.0000     0.0000     0.0000 </r>
        <r>     6.3728     0.0004     0.0002     0.0002     0.0003     0.0000     0.0000     0.0000     0.0000     0.0000 </r>
        <r>     6.4878     0.0000     0.0000     0.0000     0.0061     0.0000     0.0000     0.0000     0.0000     0.0000 </r>
        <r>     6.6028     0.0000     0.0001     0.0000     0.0612     0.0000     0.0000     0.0000     0.0000     0.0000 </r>
        <r>     6.7178     0.0038     0.0048     0.0024     0.0723     0.0000     0.0000     0.0000     0.0000     0.0000 </r>
        <r>     6.8328     0.0336     0.0429     0.0215     0.0307     0.0000     0.0000     0.0000     0.0000     0.0000 </r>
        <r>     6.9478     0.0356     0.0438     0.0229     0.0221     0.0000     0.0000     0.0000     0.0000     0.0000 </r>
        <r>     7.0628     0.0326     0.0130     0.0236     0.0105     0.0000     0.0000     0.0000     0.0000     0.0000 </r>
        <r>     7.1778     0.0614     0.0346     0.0450     0.0346     0.0000     0.0000     0.0000     0.0000     0.0000 </r>
        <r>     7.2928     0.0172     0.0182     0.0118     0.0177     0.0000     0.0000     0.0000     0.0000     0.0000 </r>
        <r>     7.4078     0.0336     0.0095     0.0088     0.0010     0.0000     0.0000     0.0000     0.0000     0.0000 </r>
        <r>     7.5228     0.0690     0.0177     0.0177     0.0003     0.0000     0.0000     0.0000     0.0000     0.0000 </r>
        <r>     7.6378     0.0171     0.0054     0.0043     0.0148     0.0000     0.0000     0.0000     0.0000     0.0000 </r>
        <r>     7.7528     0.0041     0.0184     0.0001     0.0939     0.0000     0.0000     0.0000     0.0000     0.0000 </r>
        <r>     7.8678     0.0093     0.0360     0.0017     0.0846     0.0000     0.0000     0.0000     0.0000     0.0000 </r>
        <r>     7.9828     0.0248     0.0232     0.0157     0.0267     0.0000     0.0000     0.0000     0.0000     0.0000 </r>
        <r>     8.0978     0.0248     0.0168     0.0166     0.0168     0.0000     0.0000     0.0000     0.0000     0.0000 </r>
        <r>     8.2128     0.0030     0.0020     0.0020     0.0020     0.0000     0.0000     0.0000     0.0000     0.0000 </r>
        <r>     8.3278     0.0003     0.0002     0.0001     0.0001     0.0000     0.0000     0.0000     0.0000     0.0000 </r>
        <r>     8.4428     0.0136     0.0090     0.0038     0.0052     0.0000     0.0000     0.0000     0.0000     0.0000 </r>
        <r>     8.5578     0.0740     0.0520     0.0202     0.0318     0.0000     0.0000     0.0000     0.0000     0.0000 </r>
        <r>     8.6728     0.0471     0.0354     0.0126     0.0227     0.0000     0.0000     0.0000     0.0000     0.0000 </r>
        <r>     8.7879     0.0033     0.0027     0.0009     0.0018     0.0000     0.0000     0.0000     0.0000     0.0000 </r>
        <r>     8.9029     0.0000     0.0000     0.0000     0.0006     0.0000     0.0000     0.0000     0.0000     0.0000 </r>
        <r>     9.0179     0.0000     0.0000     0.0000     0.0202     0.0000     0.0000     0.0000     0.0000     0.0000 </r>
        <r>     9.1329     0.0001     0.0001     0.0000     0.0787     0.0000     0.0000     0.0000     0.0000     0.0000 </r>
        <r>     9.2479     0.0046     0.0063     0.0028     0.0423     0.0000     0.0000     0.0000     0.0000     0.0000 </r>
        <r>     9.3629     0.0434     0.0340     0.0361     0.0358     0.0000     0.0000     0.0000     0.0000     0.0000 </r>
        <r>     9.4779     0.0537     0.0214     0.0523     0.0214     0.0000     0.0000     0.0000     0.0000     0.0000 </r>
        <r>     9.5929     0.0084     0.0015     0.0088     0.0015     0.0000     0.0000     0.0000     0.0000     0.0000 </r>
        <r>     9.7079     0.0016     0.0007     0.0008     0.0000     0.0000     0.0000     0.0000     0.0000     0.0000 </r>
        <r>     9.8229     0.0288     0.0130     0.0130     0.0001     0.0000     0.0000     0.0000     0.0000     0.0000 </r>
        <r>     9.9379     0.0640     0.0308     0.0307     0.0038     0.0000     0.0000     0.0000     0.0000     0.0000 </r>
        <r>    10.0529     0.0392     0.0320     0.0274     0.0254     0.0000     0.0000     0.0000     0.0000     0.0000 </r>
        <r>    10.1679     0.0249     0.0461     0.0137     0.0459     0.0000     0.0000     0.0000     0.0000     0.0000 </r>
        <r>    10.2829     0.0088     0.0273     0.0010     0.0273     0.0000     0.0000     0.0000     0.0000     0.0000 </r>
        <r>    10.3979     0.0007     0.0024     0.0000     0.0024     0.0000     0.0000     0.0000     0.0000     0.0000 </r>
        <r>    10.5129     0.0000     0.0000     0.0000     0.0008     0.0000     0.0000     0.0000     0.0000     0.0000 </r>
        <r>    10.6279     0.0000     0.0000     0.0000     0.0234     0.0000     0.0000     0.0000     0.0000     0.0000 </r>
        <r>    10.7429     0.0000     0.0000     0.0000     0.0774     0.0000     0.0000     0.0000     0.0000     0.0000 </r>
        <r>    10.8579     0.0006     0.0026     0.0000     0.0328     0.0000     0.0000     0.0000     0.0000     0.0000 </r>
        <r>    10.9729     0.0063     0.0281     0.0000     0.0294     0.0000     0.0000     0.0000     0.0000     0.0000 </r>
        <r>    11.0879     0.0076     0.0342     0.0000     0.0342     0.0000     0.0000     0.0000     0.0000     0.0000 </r>
        <r>    11.2029     0.0012     0.0049     0.0001     0.0048     0.0000     0.0000     0.0000     0.0000     0.0000 </r>
        <r>    11.3179     0.0090     0.0061     0.0061     0.0001     0.0000     0.0000     0.0000     0.0000     0.0000 </r>
        <r>    11.4329     0.0470     0.0316     0.0316     0.0000     0.0000     0.0000     0.0000     0.0000     0.0000 </r>
        <r>    11.5479     0.0287     0.0193     0.0193     0.0000     0.0000     0.0000     0.0000     0.0000     0.0000 </r>
        <r>    11.6629     0.0037     0.0037     0.0034     0.0024     0.0000     0.0000     0.0000     0.0000     0.0000 </r>
        <r>    11.7779     0.0277     0.0288     0.0363     0.0288     0.0000     0.0000     0.0000     0.0000     0.0000 </r>
        <r>    11.8930     0.0499     0.0391     0.0679     0.0391     0.0000     0.0000     0.0000     0.0000     0.0000 </r>
        <r>    12.0080     0.0108     0.0063     0.0151     0.0063     0.0000     0.0000     0.0000     0.0000     0.0000 </r>
        <r>    12.1230     0.0048     0.0059     0.0062     0.0059     0.0000     0.0000     0.0000     0.0000     0.0000 </r>
        <r>    12.2380     0.0188     0.0239     0.0239     0.0239     0.0000     0.0000     0.0000     0.0000     0.0000 </r>
        <r>    12.3530     0.0091     0.0123     0.0115     0.0133     0.0000     0.0000     0.0000     0.0000     0.0000 </r>
        <r>    12.4680     0.0014     0.0196     0.0006     0.0462     0.0000     0.0000     0.0000     0.0000     0.0000 </r>
        <r>    12.5830     0.0024     0.0521     0.0000     0.1281     0.0000     0.0000     0.0000     0.0000     0.0000 </r>
        <r>    12.6980     0.0008     0.0183     0.0000     0.0439     0.0000     0.0000     0.0000     0.0000     0.0000 </r>
        <r>    12.8130     0.0000     0.0652     0.0000     0.0661     0.0000     0.0000     0.0000     0.0000     0.0000 </r>
        <r>    12.9280     0.0001     0.3729     0.0001     0.3728     0.0000     0.0000     0.0000     0.0000     0.0000 </r>
        <r>    13.0430     0.0057     0.4231     0.0060     0.4170     0.0000     0.0000     0.0000     0.0000     0.0000 </r>
        <r>    13.1580     0.0343     0.2245     0.0362     0.1883     0.0000     0.0000     0.0000     0.0000     0.0000 </r>
        <r>    13.2730     0.0239     0.1847     0.0252     0.1594     0.0000     0.0000     0.0000     0.0000     0.0000 </r>
        <r>    13.3880     0.0019     0.1991     0.0020     0.1971     0.0000     0.0000     0.0000     0.0000     0.0000 </r>
        <r>    13.5030     0.0000     0.0961     0.0000     0.0961     0.0000     0.0000     0.0000     0.0000     0.0000 </r>
        <r>    13.6180     0.0000     0.0651     0.0000     0.0651     0.0000     0.0000     0.0000     0.0000     0.0000 </r>
        <r>    13.7330     0.0000     0.0851     0.0004     0.0848     0.0000     0.0000     0.0000     0.0000     0.0000 </r>
        <r>    13.8480     0.0000     0.1738     0.0141     0.1596     0.0000     0.0000     0.0000     0.0000     0.0000 </r>
        <r>    13.9630     0.0000     0.1853     0.0582     0.1271     0.0000     0.0000     0.0000     0.0000     0.0000 </r>
        <r>    14.0780     0.0001     0.0609     0.0284     0.0327     0.0000     0.0000     0.0000     0.0000     0.0000 </r>
        <r>    14.1930     0.0064     0.0030     0.0140     0.0015     0.0000     0.0000     0.0000     0.0000     0.0000 </r>
        <r>    14.3080     0.0403     0.0007     0.0783     0.0007     0.0000     0.0000     0.0000     0.0000     0.0000 </r>
        <r>    14.4230     0.0348     0.0217     0.0679     0.0245     0.0000     0.0000     0.0000     0.0000     0.0000 </r>
        <r>    14.5380     0.0158     0.1168     0.0316     0.1586     0.0000     0.0000     0.0000     0.0000     0.0000 </r>
        <r>    14.6530     0.0047     0.1202     0.0253     0.1733     0.0000     0.0000     0.0000     0.0000     0.0000 </r>
        <r>    14.7680     0.0008     0.0731     0.0593     0.0280     0.0000     0.0000     0.0000     0.0000     0.0000 </r>
        <r>    14.8830     0.0015     0.0253     0.0246     0.0009     0.0000     0.0000     0.0000     0.0000     0.0000 </r>
        <r>    14.9981     0.0203     0.0318     0.0277     0.0041     0.0000     0.0000     0.0000     0.0000     0.0000 </r>
        <r>    15.1131     0.0320     0.0493     0.0433     0.0060     0.0000     0.0000     0.0000     0.0000     0.0000 </r>
        <r>    15.2281     0.0105     0.0102     0.0082     0.0020     0.0000     0.0000     0.0000     0.0000     0.0000 </r>
        <r>    15.3431     0.0186     0.0129     0.0002     0.0128     0.0000     0.0000     0.0000     0.0000     0.0000 </r>
        <r>    15.4581     0.0179     0.0872     0.0000     0.0872     0.0000     0.0000     0.0000     0.0000     0.0000 </r>
        <r>    15.5731     0.0276     0.0935     0.0019     0.0915     0.0000     0.0000     0.0000     0.0000     0.0000 </r>
        <r>    15.6881     0.0284     0.0431     0.0314     0.0117     0.0000     0.0000     0.0000     0.0000     0.0000 </r>
        <r>    15.8031     0.0305     0.0566     0.0561     0.0005     0.0000     0.0000     0.0000     0.0000     0.0000 </r>
        <r>    15.9181     0.0329     0.0118     0.0118     0.0001     0.0000     0.0000     0.0000     0.0000     0.0000 </r>
        <r>    16.0331     0.0265     0.0003     0.0003     0.0000     0.0000     0.0000     0.0000     0.0000     0.0000 </r>
        <r>    16.1481     0.0332     0.0001     0.0000     0.0001     0.0000     0.0000     0.0000     0.0000     0.0000 </r>
        <r>    16.2631     0.0232     0.0001     0.0000     0.0001     0.0000     0.0000     0.0000     0.0000     0.0000 </r>
        <r>    16.3781     0.0510     0.0008     0.0008     0.0008     0.0000     0.0000     0.0000     0.0000     0.0000 </r>
        <r>    16.4931     0.1729     0.0230     0.0299     0.0228     0.0000     0.0000     0.0000     0.0000     0.0000 </r>
        <r>    16.6081     0.3058     0.1096     0.1147     0.1099     0.0000     0.0000     0.0000     0.0000     0.0000 </r>
        <r>    16.7231     0.1581     0.0716     0.0613     0.0999     0.0000     0.0000     0.0000     0.0000     0.0000 </r>
        <r>    16.8381     0.0316     0.0512     0.0504     0.1166     0.0000     0.0000     0.0000     0.0000     0.0000 </r>
        <r>    16.9531     0.0667     0.0884     0.0917     0.0403     0.0000     0.0000     0.0000     0.0000     0.0000 </r>
        <r>    17.0681     0.0943     0.0862     0.0819     0.0088     0.0000     0.0000     0.0000     0.0000     0.0000 </r>
        <r>    17.1831     0.0510     0.0297     0.0224     0.0076     0.0000     0.0000     0.0000     0.0000     0.0000 </r>
        <r>    17.2981     0.0060     0.0019     0.0010     0.0009     0.0000     0.0000     0.0000     0.0000     0.0000 </r>
        <r>    17.4131     0.0189     0.0013     0.0022     0.0000     0.0000     0.0000     0.0000     0.0000     0.0000 </r>
        <r>    17.5281     0.0717     0.0028     0.0097     0.0000     0.0000     0.0000     0.0000     0.0000     0.0000 </r>
        <r>    17.6431     0.0458     0.0016     0.0066     0.0008     0.0000     0.0000     0.0000     0.0000     0.0000 </r>
        <r>    17.7581     0.0278     0.0184     0.0006     0.0184     0.0000     0.0000     0.0000     0.0000     0.0000 </r>
        <r>    17.8731     0.0365     0.1054     0.0090     0.1054     0.0000     0.0000     0.0000     0.0000     0.0000 </r>
        <r>    17.9882     0.0065     0.2573     0.1644     0.2572     0.0000     0.0000     0.0000     0.0000     0.0000 </r>
        <r>    18.1032     0.0007     0.3924     0.3830     0.3863     0.0000     0.0000     0.0000     0.0000     0.0000 </r>
        <r>    18.2182     0.0153     0.2267     0.2785     0.1754     0.0000     0.0000     0.0000     0.0000     0.0000 </r>
        <r>    18.3332     0.0469     0.1407     0.2782     0.0917     0.0000     0.0000     0.0000     0.0000     0.0000 </r>
        <r>    18.4482     0.0482     0.0404     0.0906     0.0347     0.0000     0.0000     0.0000     0.0000     0.0000 </r>
        <r>    18.5632     0.0414     0.0866     0.0890     0.0826     0.0000     0.0000     0.0000     0.0000     0.0000 </r>
        <r>    18.6782     0.0492     0.0701     0.0509     0.0654     0.0000     0.0000     0.0000     0.0000     0.0000 </r>
        <r>    18.7932     0.0204     0.0188     0.0063     0.0185     0.0000     0.0000     0.0000     0.0000     0.0000 </r>
        <r>    18.9082     0.0021     0.0532     0.0523     0.0658     0.0000     0.0000     0.0000     0.0000     0.0000 </r>
        <r>    19.0232     0.0061     0.1562     0.1562     0.2042     0.0000     0.0000     0.0000     0.0000     0.0000 </r>
        <r>    19.1382     0.0057     0.0894     0.0887     0.1028     0.0000     0.0000     0.0000     0.0000     0.0000 </r>
        <r>    19.2532     0.0008     0.0369     0.0093     0.0360     0.0000     0.0000     0.0000     0.0000     0.0000 </r>
        <r>    19.3682     0.0060     0.1342     0.0573     0.1284     0.0000     0.0000     0.0000     0.0000     0.0000 </r>
        <r>    19.4832     0.0233     0.1858     0.2784     0.1300     0.0000     0.0000     0.0000     0.0000     0.0000 </r>
        <r>    19.5982     0.0237     0.1364     0.1838     0.0743     0.0000     0.0000     0.0000     0.0000     0.0000 </r>
        <r>    19.7132     0.0237     0.0345     0.0165     0.0264     0.0000     0.0000     0.0000     0.0000     0.0000 </r>
        <r>    19.8282     0.0244     0.0062     0.0047     0.0036     0.0000     0.0000     0.0000     0.0000     0.0000 </r>
        <r>    19.9432     0.0289     0.0130     0.0141     0.0046     0.0000     0.0000     0.0000     0.0000     0.0000 </r>
        <r>    20.0582     0.0091     0.0616     0.0678     0.0582     0.0000     0.0000     0.0000     0.0000     0.0000 </r>
        <r>    20.1732     0.0040     0.0870     0.1799     0.0843     0.0000     0.0000     0.0000     0.0000     0.0000 </r>
        <r>    20.2882     0.0062     0.0620     0.2185     0.0172     0.0000     0.0000     0.0000     0.0000     0.0000 </r>
        <r>    20.4032     0.0012     0.2189     0.2498     0.1218     0.0000     0.0000     0.0000     0.0000     0.0000 </r>
        <r>    20.5182     0.0017     0.6483     0.6462     0.5098     0.0000     0.0000     0.0000     0.0000     0.0000 </r>
        <r>    20.6332     0.0135     0.4203     0.3993     0.2703     0.0000     0.0000     0.0000     0.0000     0.0000 </r>
        <r>    20.7482     0.0122     0.0567     0.0377     0.0327     0.0000     0.0000     0.0000     0.0000     0.0000 </r>
        <r>    20.8632     0.0013     0.0044     0.0025     0.0040     0.0000     0.0000     0.0000     0.0000     0.0000 </r>
        <r>    20.9782     0.0000     0.0018     0.0018     0.0018     0.0000     0.0000     0.0000     0.0000     0.0000 </r>
        <r>    21.0933     0.0000     0.0002     0.0002     0.0002     0.0000     0.0000     0.0000     0.0000     0.0000 </r>
        <r>    21.2083     0.0001     0.0017     0.0017     0.0016     0.0000     0.0000     0.0000     0.0000     0.0000 </r>
        <r>    21.3233     0.0042     0.0104     0.0104     0.0074     0.0000     0.0000     0.0000     0.0000     0.0000 </r>
        <r>    21.4383     0.0157     0.0152     0.0152     0.0041     0.0000     0.0000     0.0000     0.0000     0.0000 </r>
        <r>    21.5533     0.0076     0.0066     0.0052     0.0017     0.0000     0.0000     0.0000     0.0000     0.0000 </r>
        <r>    21.6683     0.0084     0.0179     0.0002     0.0176     0.0000     0.0000     0.0000     0.0000     0.0000 </r>
        <r>    21.7833     0.0112     0.0246     0.0003     0.0247     0.0000     0.0000     0.0000     0.0000     0.0000 </r>
        <r>    21.8983     0.0033     0.0099     0.0063     0.0099     0.0000     0.0000     0.0000     0.0000     0.0000 </r>
        <r>    22.0133     0.0036     0.0132     0.0139     0.0132     0.0000     0.0000     0.0000     0.0000     0.0000 </r>
        <r>    22.1283     0.0010     0.0042     0.0044     0.0042     0.0000     0.0000     0.0000     0.0000     0.0000 </r>
        <r>    22.2433     0.0000     0.0123     0.0126     0.0128     0.0000     0.0000     0.0000     0.0000     0.0000 </r>
        <r>    22.3583     0.0000     0.0207     0.0212     0.0231     0.0000     0.0000     0.0000     0.0000     0.0000 </r>
        <r>    22.4733     0.0002     0.0041     0.0042     0.0351     0.0000     0.0000     0.0000     0.0000     0.0000 </r>
        <r>    22.5883     0.0094     0.0029     0.0024     0.0714     0.0000     0.0000     0.0000     0.0000     0.0000 </r>
        <r>    22.7033     0.0603     0.0359     0.0184     0.0454     0.0000     0.0000     0.0000     0.0000     0.0000 </r>
        <r>    22.8183     0.0833     0.0828     0.0423     0.0709     0.0000     0.0000     0.0000     0.0000     0.0000 </r>
        <r>    22.9333     0.0392     0.0446     0.0336     0.0402     0.0000     0.0000     0.0000     0.0000     0.0000 </r>
[...]
       </set>
       <set comment="band 2">
        <r>  0.2054  0.0000  0.2305  0.0000  0.0000  0.0000  0.0000  0.0000  0.0000 </r>
       </set>
       <set comment="band 3">
        <r>  0.0000  0.2369  0.0000  0.2368  0.0000  0.0000  0.0000  0.0000  0.0000 </r>
       </set>
       <set comment="band 4">
        <r>  0.0000  0.2368  0.0000  0.2369  0.0000  0.0000  0.0000  0.0000  0.0000 </r>
       </set>
       <set comment="band 5">
        <r>  0.0000  0.0000  0.0000  0.0000  0.0000  0.0000  0.0000  0.0000  0.0000 </r>
       </set>
       <set comment="band 6">
        <r>  0.2435  0.0000  0.0187  0.0000  0.0000  0.0000  0.0000  0.0000  0.0000 </r>
       </set>
      </set>
      <set comment="kpoint 19">
       <set comment="band 1">
        <r>  0.2203  0.0000  0.1792  0.0000  0.0000  0.0000  0.0000  0.0000  0.0000 </r>
       </set>
       <set comment="band 2">
        <r>  0.2466  0.0000  0.1810  0.0000  0.0000  0.0000  0.0000  0.0000  0.0000 </r>
       </set>
       <set comment="band 3">
        <r>  0.0000  0.2394  0.0000  0.2394  0.0000  0.0000  0.0000  0.0000  0.0000 </r>
       </set>
       <set comment="band 4">
        <r>  0.0000  0.2394  0.0000  0.2395  0.0000  0.0000  0.0000  0.0000  0.0000 </r>
       </set>
       <set comment="band 5">
        <r>  0.0000  0.0000  0.0000  0.0000  0.0000  0.0000  0.0000  0.0000  0.0000 </r>
       </set>
       <set comment="band 6">
        <r>  0.2668  0.0000  0.0050  0.0000  0.0000  0.0000  0.0000  0.0000  0.0000 </r>
       </set>
      </set>
      <set comment="kpoint 20">
       <set comment="band 1">
        <r>  0.0000  0.0000  0.3594  0.0000  0.0000  0.0000  0.0000  0.0000  0.0000 </r>
       </set>
       <set comment="band 2">
        <r>  0.4659  0.0000  0.0000  0.0000  0.0000  0.0000  0.0000  0.0000  0.0000 </r>
       </set>
       <set comment="band 3">
        <r>  0.0000  0.2404  0.0000  0.2403  0.0000  0.0000  0.0000  0.0000  0.0000 </r>
       </set>
       <set comment="band 4">
        <r>  0.0000  0.2403  0.0000  0.2404  0.0000  0.0000  0.0000  0.0000  0.0000 </r>
       </set>
       <set comment="band 5">
        <r>  0.0000  0.0000  0.0000  0.0000  0.0000  0.0000  0.0000  0.0000  0.0000 </r>
       </set>
       <set comment="band 6">
        <r>  0.2737  0.0000  0.0000  0.0000  0.0000  0.0000  0.0000  0.0000  0.0000 </r>
       </set>
      </set>
      <set comment="kpoint 21">
       <set comment="band 1">
        <r>  0.0000  0.0000  0.3594  0.0000  0.0000  0.0000  0.0000  0.0000  0.0000 </r>
       </set>
       <set comment="band 2">
        <r>  0.4659  0.0000  0.0000  0.0000  0.0000  0.0000  0.0000  0.0000  0.0000 </r>
       </set>
       <set comment="band 3">
        <r>  0.0000  0.2404  0.0000  0.2403  0.0000  0.0000  0.0000  0.0000  0.0000 </r>
       </set>
       <set comment="band 4">
        <r>  0.0000  0.2403  0.0000  0.2404  0.0000  0.0000  0.0000  0.0000  0.0000 </r>
       </set>
       <set comment="band 5">
        <r>  0.0000  0.0000  0.0000  0.0000  0.0000  0.0000  0.0000  0.0000  0.0000 </r>
       </set>
       <set comment="band 6">
        <r>  0.2737  0.0000  0.0000  0.0000  0.0000  0.0000  0.0000  0.0000  0.0000 </r>
       </set>
      </set>
      <set comment="kpoint 22">
       <set comment="band 1">
        <r>  0.0000  0.0000  0.3592  0.0000  0.0000  0.0000  0.0000  0.0000  0.0000 </r>
       </set>
       <set comment="band 2">
        <r>  0.4660  0.0002  0.0000  0.0002  0.0000  0.0000  0.0000  0.0000  0.0000 </r>
       </set>
       <set comment="band 3">
        <r>  0.0095  0.2054  0.0000  0.2054  0.0000  0.0000  0.0000  0.0000  0.0000 </r>
       </set>
       <set comment="band 4">
        <r>  0.0000  0.2403  0.0000  0.2403  0.0000  0.0000  0.0000  0.0000  0.0000 </r>
       </set>
       <set comment="band 5">
        <r>  0.0048  0.0242  0.0000  0.0242  0.0000  0.0000  0.0000  0.0000  0.0000 </r>
       </set>
       <set comment="band 6">
        <r>  0.2587  0.0107  0.0000  0.0107  0.0000  0.0000  0.0000  0.0000  0.0000 </r>
       </set>
      </set>
      <set comment="kpoint 23">
       <set comment="band 1">
        <r>  0.0000  0.0000  0.3587  0.0000  0.0000  0.0000  0.0000  0.0000  0.0000 </r>
       </set>
       <set comment="band 2">
        <r>  0.4665  0.0007  0.0000  0.0007  0.0000  0.0000  0.0000  0.0000  0.0000 </r>
       </set>
       <set comment="band 3">
        <r>  0.0238  0.1760  0.0000  0.1760  0.0000  0.0000  0.0000  0.0000  0.0000 </r>
       </set>
       <set comment="band 4">
        <r>  0.0000  0.2400  0.0000  0.2400  0.0000  0.0000  0.0000  0.0000  0.0000 </r>
       </set>
       <set comment="band 5">
        <r>  0.0344  0.0262  0.0000  0.0262  0.0000  0.0000  0.0000  0.0000  0.0000 </r>
       </set>
       <set comment="band 6">
        <r>  0.2128  0.0383  0.0000  0.0383  0.0000  0.0000  0.0000  0.0000  0.0000 </r>
       </set>
      </set>
      <set comment="kpoint 24">
       <set comment="band 1">
        <r>  0.0000  0.0000  0.3578  0.0000  0.0000  0.0000  0.0000  0.0000  0.0000 </r>
       </set>
       <set comment="band 2">
        <r>  0.4677  0.0016  0.0000  0.0016  0.0000  0.0000  0.0000  0.0000  0.0000 </r>
       </set>
       <set comment="band 3">
        <r>  0.0358  0.1608  0.0000  0.1608  0.0000  0.0000  0.0000  0.0000  0.0000 </r>
       </set>
       <set comment="band 4">
        <r>  0.0000  0.2396  0.0000  0.2396  0.0000  0.0000  0.0000  0.0000  0.0000 </r>
       </set>
       <set comment="band 5">
        <r>  0.0729  0.0143  0.0000  0.0143  0.0000  0.0000  0.0000  0.0000  0.0000 </r>
       </set>
       <set comment="band 6">
        <r>  0.1583  0.0657  0.0000  0.0657  0.0000  0.0000  0.0000  0.0000  0.0000 </r>
       </set>
      </set>
      <set comment="kpoint 25">
       <set comment="band 1">
        <r>  0.0000  0.0000  0.3564  0.0000  0.0000  0.0000  0.0000  0.0000  0.0000 </r>
       </set>
       <set comment="band 2">
        <r>  0.4701  0.0026  0.0000  0.0026  0.0000  0.0000  0.0000  0.0000  0.0000 </r>
       </set>
       <set comment="band 3">
        <r>  0.0443  0.1515  0.0000  0.1515  0.0000  0.0000  0.0000  0.0000  0.0000 </r>
       </set>
       <set comment="band 4">
        <r>  0.0000  0.2392  0.0000  0.2392  0.0000  0.0000  0.0000  0.0000  0.0000 </r>
       </set>
       <set comment="band 5">
        <r>  0.0996  0.0058  0.0000  0.0058  0.0000  0.0000  0.0000  0.0000  0.0000 </r>
       </set>
       <set comment="band 6">
        <r>  0.1169  0.0839  0.0000  0.0839  0.0000  0.0000  0.0000  0.0000  0.0000 </r>
       </set>
      </set>
      <set comment="kpoint 26">
       <set comment="band 1">
        <r>  0.0000  0.0000  0.3549  0.0000  0.0000  0.0000  0.0000  0.0000  0.0000 </r>
       </set>
       <set comment="band 2">
        <r>  0.4756  0.0034  0.0000  0.0034  0.0000  0.0000  0.0000  0.0000  0.0000 </r>
       </set>
       <set comment="band 3">
        <r>  0.0482  0.1457  0.0000  0.1457  0.0000  0.0000  0.0000  0.0000  0.0000 </r>
       </set>
       <set comment="band 4">
        <r>  0.0000  0.2385  0.0000  0.2385  0.0000  0.0000  0.0000  0.0000  0.0000 </r>
       </set>
       <set comment="band 5">
        <r>  0.1145  0.0016  0.0000  0.0016  0.0000  0.0000  0.0000  0.0000  0.0000 </r>
       </set>
       <set comment="band 6">
        <r>  0.0878  0.0952  0.0000  0.0952  0.0000  0.0000  0.0000  0.0000  0.0000 </r>
       </set>
      </set>
      <set comment="kpoint 27">
       <set comment="band 1">
        <r>  0.0000  0.0000  0.3531  0.0000  0.0000  0.0000  0.0000  0.0000  0.0000 </r>
       </set>
       <set comment="band 2">
        <r>  0.4872  0.0034  0.0000  0.0034  0.0000  0.0000  0.0000  0.0000  0.0000 </r>
       </set>
       <set comment="band 3">
        <r>  0.0445  0.1418  0.0000  0.1418  0.0000  0.0000  0.0000  0.0000  0.0000 </r>
       </set>
       <set comment="band 4">
        <r>  0.0000  0.2379  0.0000  0.2379  0.0000  0.0000  0.0000  0.0000  0.0000 </r>
       </set>
       <set comment="band 5">
        <r>  0.1223  0.0001  0.0000  0.0001  0.0000  0.0000  0.0000  0.0000  0.0000 </r>
       </set>
       <set comment="band 6">
        <r>  0.0662  0.1029  0.0000  0.1029  0.0000  0.0000  0.0000  0.0000  0.0000 </r>
       </set>
      </set>
      <set comment="kpoint 28">
       <set comment="band 1">
        <r>  0.0000  0.0000  0.3512  0.0000  0.0000  0.0000  0.0000  0.0000  0.0000 </r>
       </set>
       <set comment="band 2">
        <r>  0.5105  0.0017  0.0000  0.0017  0.0000  0.0000  0.0000  0.0000  0.0000 </r>
       </set>
       <set comment="band 3">
        <r>  0.0278  0.1413  0.0000  0.1413  0.0000  0.0000  0.0000  0.0000  0.0000 </r>
       </set>
       <set comment="band 4">
        <r>  0.0000  0.2371  0.0000  0.2371  0.0000  0.0000  0.0000  0.0000  0.0000 </r>
       </set>
       <set comment="band 5">
        <r>  0.1253  0.0002  0.0000  0.0002  0.0000  0.0000  0.0000  0.0000  0.0000 </r>
       </set>
       <set comment="band 6">
        <r>  0.0501  0.1090  0.0000  0.1090  0.0000  0.0000  0.0000  0.0000  0.0000 </r>
       </set>
      </set>
      <set comment="kpoint 29">
       <set comment="band 1">
        <r>  0.0000  0.0000  0.3487  0.0000  0.0000  0.0000  0.0000  0.0000  0.0000 </r>
       </set>
       <set comment="band 2">
        <r>  0.5433  0.0008  0.0000  0.0008  0.0000  0.0000  0.0000  0.0000  0.0000 </r>
       </set>
       <set comment="band 3">
        <r>  0.0003  0.1412  0.0000  0.1412  0.0000  0.0000  0.0000  0.0000  0.0000 </r>
       </set>
       <set comment="band 4">
        <r>  0.0000  0.2362  0.0000  0.2362  0.0000  0.0000  0.0000  0.0000  0.0000 </r>
       </set>
       <set comment="band 5">
        <r>  0.1261  0.0013  0.0000  0.0013  0.0000  0.0000  0.0000  0.0000  0.0000 </r>
       </set>
       <set comment="band 6">
        <r>  0.0364  0.1122  0.0000  0.1122  0.0000  0.0000  0.0000  0.0000  0.0000 </r>
       </set>
      </set>
      <set comment="kpoint 30">
       <set comment="band 1">
        <r>  0.0000  0.0000  0.3462  0.0000  0.0000  0.0000  0.0000  0.0000  0.0000 </r>
       </set>
       <set comment="band 2">
        <r>  0.4601  0.0307  0.0000  0.0307  0.0000  0.0000  0.0000  0.0000  0.0000 </r>
       </set>
       <set comment="band 3">
        <r>  0.0869  0.1111  0.0000  0.1111  0.0000  0.0000  0.0000  0.0000  0.0000 </r>
       </set>
       <set comment="band 4">
        <r>  0.0000  0.2355  0.0000  0.2355  0.0000  0.0000  0.0000  0.0000  0.0000 </r>
       </set>
       <set comment="band 5">
        <r>  0.1253  0.0032  0.0000  0.0032  0.0000  0.0000  0.0000  0.0000  0.0000 </r>
       </set>
       <set comment="band 6">
        <r>  0.0251  0.1140  0.0000  0.1140  0.0000  0.0000  0.0000  0.0000  0.0000 </r>
       </set>
      </set>
      <set comment="kpoint 31">
       <set comment="band 1">
        <r>  0.0000  0.0000  0.0000  0.3462  0.0000  0.0000  0.0000  0.0000  0.0000 </r>
       </set>
       <set comment="band 2">
        <r>  0.4601  0.0307  0.0307  0.0000  0.0000  0.0000  0.0000  0.0000  0.0000 </r>
       </set>
       <set comment="band 3">
        <r>  0.0869  0.1111  0.1111  0.0000  0.0000  0.0000  0.0000  0.0000  0.0000 </r>
       </set>
       <set comment="band 4">
        <r>  0.0000  0.2355  0.2355  0.0000  0.0000  0.0000  0.0000  0.0000  0.0000 </r>
       </set>
       <set comment="band 5">
        <r>  0.1253  0.0032  0.0032  0.0000  0.0000  0.0000  0.0000  0.0000  0.0000 </r>
       </set>
       <set comment="band 6">
        <r>  0.0251  0.1140  0.1140  0.0000  0.0000  0.0000  0.0000  0.0000  0.0000 </r>
       </set>
      </set>
      <set comment="kpoint 32">
       <set comment="band 1">
        <r>  0.2743  0.0728  0.0728  0.0000  0.0000  0.0000  0.0000  0.0000  0.0000 </r>
       </set>
       <set comment="band 2">
        <r>  0.0000  0.0000  0.0000  0.3370  0.0000  0.0000  0.0000  0.0000  0.0000 </r>
       </set>
       <set comment="band 3">
        <r>  0.2789  0.0715  0.0715  0.0000  0.0000  0.0000  0.0000  0.0000  0.0000 </r>
       </set>
       <set comment="band 4">
        <r>  0.0000  0.2335  0.2335  0.0000  0.0000  0.0000  0.0000  0.0000  0.0000 </r>
       </set>
       <set comment="band 5">
        <r>  0.1153  0.0114  0.0114  0.0000  0.0000  0.0000  0.0000  0.0000  0.0000 </r>
       </set>
       <set comment="band 6">
        <r>  0.0023  0.1186  0.1192  0.0000  0.0000  0.0000  0.0000  0.0000  0.0000 </r>
       </set>
      </set>
      <set comment="kpoint 33">
       <set comment="band 1">
        <r>  0.2769  0.0646  0.0646  0.0000  0.0000  0.0000  0.0000  0.0000  0.0000 </r>
       </set>
       <set comment="band 2">
        <r>  0.0000  0.0000  0.0000  0.3260  0.0000  0.0000  0.0000  0.0000  0.0000 </r>
       </set>
       <set comment="band 3">
        <r>  0.2737  0.0865  0.0865  0.0000  0.0000  0.0000  0.0000  0.0000  0.0000 </r>
       </set>
       <set comment="band 4">
        <r>  0.0000  0.2333  0.2333  0.0000  0.0000  0.0000  0.0000  0.0000  0.0000 </r>
       </set>
       <set comment="band 5">
        <r>  0.0999  0.0222  0.0222  0.0000  0.0000  0.0000  0.0000  0.0000  0.0000 </r>
       </set>
       <set comment="band 6">
        <r>  0.0000  0.1079  0.1078  0.0000  0.0000  0.0000  0.0000  0.0000  0.0000 </r>
       </set>
      </set>
      <set comment="kpoint 34">
       <set comment="band 1">
        <r>  0.2977  0.0514  0.0514  0.0000  0.0000  0.0000  0.0000  0.0000  0.0000 </r>
       </set>
       <set comment="band 2">
        <r>  0.0000  0.0000  0.0000  0.3156  0.0000  0.0000  0.0000  0.0000  0.0000 </r>
       </set>
       <set comment="band 3">
        <r>  0.2416  0.1092  0.1092  0.0000  0.0000  0.0000  0.0000  0.0000  0.0000 </r>
       </set>
       <set comment="band 4">
        <r>  0.0000  0.2388  0.2388  0.0000  0.0000  0.0000  0.0000  0.0000  0.0000 </r>
       </set>
       <set comment="band 5">
        <r>  0.0819  0.0333  0.0333  0.0000  0.0000  0.0000  0.0000  0.0000  0.0000 </r>
       </set>
       <set comment="band 6">
        <r>  0.0000  0.1116  0.1113  0.0000  0.0000  0.0000  0.0000  0.0000  0.0000 </r>
       </set>
      </set>
      <set comment="kpoint 35">
       <set comment="band 1">
        <r>  0.3212  0.0379  0.0379  0.0000  0.0000  0.0000  0.0000  0.0000  0.0000 </r>
       </set>
       <set comment="band 2">
        <r>  0.0000  0.0000  0.0000  0.3058  0.0000  0.0000  0.0000  0.0000  0.0000 </r>
       </set>
       <set comment="band 3">
        <r>  0.1997  0.1342  0.1342  0.0000  0.0000  0.0000  0.0000  0.0000  0.0000 </r>
       </set>
       <set comment="band 4">
        <r>  0.0000  0.2575  0.2575  0.0000  0.0000  0.0000  0.0000  0.0000  0.0000 </r>
       </set>
       <set comment="band 5">
        <r>  0.0629  0.0445  0.0445  0.0000  0.0000  0.0000  0.0000  0.0000  0.0000 </r>
       </set>
       <set comment="band 6">
        <r>  0.0000  0.0979  0.0979  0.0000  0.0000  0.0000  0.0000  0.0000  0.0000 </r>
       </set>
      </set>
      <set comment="kpoint 36">
       <set comment="band 1">
        <r>  0.3428  0.0252  0.0252  0.0000  0.0000  0.0000  0.0000  0.0000  0.0000 </r>
       </set>
       <set comment="band 2">
        <r>  0.0000  0.0000  0.0000  0.2994  0.0000  0.0000  0.0000  0.0000  0.0000 </r>
       </set>
       <set comment="band 3">
        <r>  0.1518  0.1600  0.1600  0.0000  0.0000  0.0000  0.0000  0.0000  0.0000 </r>
       </set>
       <set comment="band 4">
        <r>  0.0000  0.3028  0.3028  0.0000  0.0000  0.0000  0.0000  0.0000  0.0000 </r>
       </set>
       <set comment="band 5">
        <r>  0.0495  0.0550  0.0558  0.0000  0.0000  0.0000  0.0000  0.0000  0.0000 </r>
       </set>
       <set comment="band 6">
        <r>  0.0000  0.0002  0.0002  0.0000  0.0000  0.0000  0.0000  0.0000  0.0000 </r>
       </set>
      </set>
      <set comment="kpoint 37">
       <set comment="band 1">
        <r>  0.3619  0.0147  0.0147  0.0000  0.0000  0.0000  0.0000  0.0000  0.0000 </r>
       </set>
       <set comment="band 2">
        <r>  0.0000  0.0000  0.0000  0.3007  0.0000  0.0000  0.0000  0.0000  0.0000 </r>
       </set>
       <set comment="band 3">
        <r>  0.1029  0.1846  0.1846  0.0000  0.0000  0.0000  0.0000  0.0000  0.0000 </r>
       </set>
       <set comment="band 4">
        <r>  0.0000  0.3496  0.3496  0.0000  0.0000  0.0000  0.0000  0.0000  0.0000 </r>
       </set>
       <set comment="band 5">
        <r>  0.0000  0.0000  0.0000  0.0000  0.0000  0.0000  0.0000  0.0000  0.0000 </r>
       </set>
       <set comment="band 6">
        <r>  0.0000  0.0000  0.0000  0.3484  0.0000  0.0000  0.0000  0.0000  0.0000 </r>
       </set>
      </set>
      <set comment="kpoint 38">
       <set comment="band 1">
        <r>  0.3765  0.0067  0.0067  0.0000  0.0000  0.0000  0.0000  0.0000  0.0000 </r>
       </set>
       <set comment="band 2">
        <r>  0.0000  0.0000  0.0000  0.3253  0.0000  0.0000  0.0000  0.0000  0.0000 </r>
       </set>
       <set comment="band 3">
        <r>  0.0571  0.2092  0.2092  0.0000  0.0000  0.0000  0.0000  0.0000  0.0000 </r>
       </set>
       <set comment="band 4">
        <r>  0.0000  0.3555  0.3555  0.0000  0.0000  0.0000  0.0000  0.0000  0.0000 </r>
       </set>
       <set comment="band 5">
        <r>  0.0000  0.0000  0.0000  0.0000  0.0000  0.0000  0.0000  0.0000  0.0000 </r>
       </set>
       <set comment="band 6">
        <r>  0.0000  0.0000  0.0000  0.3406  0.0000  0.0000  0.0000  0.0000  0.0000 </r>
       </set>
      </set>
      <set comment="kpoint 39">
       <set comment="band 1">
        <r>  0.3854  0.0017  0.0017  0.0000  0.0000  0.0000  0.0000  0.0000  0.0000 </r>
       </set>
       <set comment="band 2">
        <r>  0.0000  0.0000  0.0000  0.4063  0.0000  0.0000  0.0000  0.0000  0.0000 </r>
       </set>
       <set comment="band 3">
        <r>  0.0188  0.2376  0.2376  0.0000  0.0000  0.0000  0.0000  0.0000  0.0000 </r>
       </set>
       <set comment="band 4">
        <r>  0.0000  0.3471  0.3471  0.0000  0.0000  0.0000  0.0000  0.0000  0.0000 </r>
       </set>
       <set comment="band 5">
        <r>  0.0000  0.0000  0.0000  0.0000  0.0000  0.0000  0.0000  0.0000  0.0000 </r>
       </set>
       <set comment="band 6">
        <r>  0.0000  0.0000  0.0000  0.2775  0.0000  0.0000  0.0000  0.0000  0.0000 </r>
       </set>
      </set>
      <set comment="kpoint 40">
       <set comment="band 1">
        <r>  0.3877  0.0000  0.0000  0.0000  0.0000  0.0000  0.0000  0.0000  0.0000 </r>
       </set>
       <set comment="band 2">
        <r>  0.0000  0.2283  0.2281  0.2292  0.0000  0.0000  0.0000  0.0000  0.0000 </r>
       </set>
       <set comment="band 3">
        <r>  0.0000  0.3862  0.1607  0.1389  0.0000  0.0000  0.0000  0.0000  0.0000 </r>
       </set>
       <set comment="band 4">
        <r>  0.0000  0.0712  0.2969  0.3176  0.0000  0.0000  0.0000  0.0000  0.0000 </r>
       </set>
       <set comment="band 5">
        <r>  0.0000  0.0000  0.0000  0.0000  0.0000  0.0000  0.0000  0.0000  0.0000 </r>
       </set>
       <set comment="band 6">
        <r>  0.0000  0.0000  0.0000  0.0000  0.0000  0.0000  0.0000  0.0000  0.0000 </r>
       </set>
      </set>
     </set>
    </set>
   </array>
  </projected>
 </calculation>
 <structure name="finalpos" >
  <crystal>
   <varray name="basis" >
    <v>       1.95000000       1.95000000       0.00000000 </v>
    <v>       0.00000000       1.95000000       1.95000000 </v>
    <v>       1.95000000       0.00000000       1.95000000 </v>
   </varray>
   <i name="volume">     14.82975000 </i>
   <varray name="rec_basis" >
    <v>       0.25641026       0.25641026      -0.25641026 </v>
    <v>      -0.25641026       0.25641026       0.25641026 </v>
    <v>       0.25641026      -0.25641026       0.25641026 </v>
   </varray>
  </crystal>
  <varray name="positions" >
   <v>       0.00000000       0.00000000       0.00000000 </v>
  </varray>
 </structure>
</modeling>
