 running on    1 total cores
 distrk:  each k-point on    1 cores,    1 groups
 distr:  one band on    1 cores,    1 groups
 using from now: INCAR     
 vasp.5.3.5 31Mar14 (build Feb  5 2015 19:39:53) complex                        
  
 POSCAR found :  1 types and       1 ions
 scaLAPACK will be used
 LDA part: xc-table for Ceperly-Alder, standard interpolation
 POSCAR, INCAR and KPOINTS ok, starting setup
 WARNING: small aliasing (wrap around) errors must be expected
 FFT: planning ...
 WAVECAR not read
 charge-density read from file: fcc                                     
 entering main loop
       N       E                     dE             d eps       ncg     rms          rms(c)
DAV:   1    -0.445408056987E+01   -0.44541E+01   -0.11415E+03   570   0.263E+02
DAV:   2    -0.595927504038E+01   -0.15052E+01   -0.12068E+01   690   0.219E+01
DAV:   3    -0.597060491316E+01   -0.11330E-01   -0.11329E-01   546   0.188E+00
DAV:   4    -0.597061669800E+01   -0.11785E-04   -0.11786E-04   702   0.596E-02
DAV:   5    -0.597061672076E+01   -0.22761E-07   -0.21835E-07   480   0.170E-03
DAV:   6    -0.597061672235E+01   -0.15876E-08   -0.16770E-08   444   0.251E-04
   1 F= -.59706167E+01 E0= -.59704794E+01  d E =-.274590E-03
 writing wavefunctions
