LAMMPS (17 Nov 2016)
Lattice spacing in x,y,z = 3.1 3.1 3.1
Created orthogonal box = (0 0 0) to (3.1 3.1 3.1)
  2 by 2 by 7 MPI processor grid
Lattice spacing in x,y,z = 4 4 4
Created 4 atoms
Replicating atoms ...
  orthogonal box = (0 0 0) to (3.1 3.1 3.1)
  2 by 2 by 7 MPI processor grid
  4 atoms
Reading potential file AlCu.eam.alloy with DATE: 2008-10-01
WARNING: Resetting reneighboring criteria during minimization (../min.cpp:168)
Neighbor list info ...
  1 neighbor list requests
  update every 1 steps, delay 0 steps, check yes
  max neighbors/atom: 2000, page size: 100000
  master list distance cutoff = 8.6825
  ghost atom cutoff = 8.6825
  binsize = 4.34125, bins = 1 1 1
WARNING: Proc sub-domain size < neighbor skin, could lead to lost atoms (../domain.cpp:936)
Setting up cg style minimization ...
  Unit style    : metal
Memory usage per processor = 4.08211 Mbytes
Step Temp E_pair E_mol TotEng Press 
       0            0    53.243002            0    53.243002    7121358.3 
      32            0    7.5467459            0    7.5467459    3760243.8 
Loop time of 4.159 on 28 procs for 32 steps with 4 atoms

96.3% CPU use with 28 MPI tasks x no OpenMP threads

Minimization stats:
  Stopping criterion = energy tolerance
  Energy initial, next-to-last, final = 
         53.2430016185      7.54674590304      7.54674590304
  Force two-norm initial, final = 157.881 7.96597e-14
  Force max component initial, final = 45.5762 4.00097e-14
  Final line search alpha, max atom move = 1 4.00097e-14
  Iterations, force evaluations = 32 62

MPI task timing breakdown:
Section |  min time  |  avg time  |  max time  |%varavg| %total
---------------------------------------------------------------
Pair    | 0.0050695  | 0.68476    | 1.3568     |  57.7 | 16.46
Neigh   | 0          | 0          | 0          |   0.0 |  0.00
Comm    | 0.0098944  | 0.58765    | 1.6733     |  51.9 | 14.13
Output  | 0          | 0          | 0          |   0.0 |  0.00
Modify  | 0          | 0          | 0          |   0.0 |  0.00
Other   |            | 2.887      |            |       | 69.41

Nlocal:    0.142857 ave 1 max 0 min
Histogram: 24 0 0 0 0 0 0 0 0 4
Nghost:    833 ave 864 max 791 min
Histogram: 12 0 0 0 0 0 0 0 0 16
Neighs:    25.4286 ave 215 max 0 min
Histogram: 24 0 0 0 0 0 1 1 0 2

Total # of neighbors = 712
Ave neighs/atom = 178
Neighbor list builds = 0
Dangerous builds = 0
System init for write_data ...
Neighbor list info ...
  1 neighbor list requests
  update every 1 steps, delay 10 steps, check yes
  max neighbors/atom: 2000, page size: 100000
  master list distance cutoff = 8.6825
  ghost atom cutoff = 8.6825
  binsize = 4.34125, bins = 1 1 1
WARNING: Proc sub-domain size < neighbor skin, could lead to lost atoms (../domain.cpp:936)
Lattice spacing in x,y,z = 3.2 3.2 3.2
Created orthogonal box = (0 0 0) to (3.2 3.2 3.2)
  2 by 2 by 7 MPI processor grid
Lattice spacing in x,y,z = 4 4 4
Created 4 atoms
Replicating atoms ...
  orthogonal box = (0 0 0) to (3.2 3.2 3.2)
  2 by 2 by 7 MPI processor grid
  4 atoms
Reading potential file AlCu.eam.alloy with DATE: 2008-10-01
WARNING: Resetting reneighboring criteria during minimization (../min.cpp:168)
Neighbor list info ...
  1 neighbor list requests
  update every 1 steps, delay 0 steps, check yes
  max neighbors/atom: 2000, page size: 100000
  master list distance cutoff = 8.6825
  ghost atom cutoff = 8.6825
  binsize = 4.34125, bins = 1 1 1
WARNING: Proc sub-domain size < neighbor skin, could lead to lost atoms (../domain.cpp:936)
Setting up cg style minimization ...
  Unit style    : metal
Memory usage per processor = 4.07448 Mbytes
Step Temp E_pair E_mol TotEng Press 
       0            0    28.470004            0    28.470004    4705958.9 
       9            0    1.6158994            0    1.6158994    2695746.8 
Loop time of 1.57594 on 28 procs for 9 steps with 4 atoms

96.3% CPU use with 28 MPI tasks x no OpenMP threads

Minimization stats:
  Stopping criterion = energy tolerance
  Energy initial, next-to-last, final = 
         28.4700035749      1.61589942219      1.61589942219
  Force two-norm initial, final = 99.7874 1.79582e-14
  Force max component initial, final = 28.8061 7.10543e-15
  Final line search alpha, max atom move = 1 7.10543e-15
  Iterations, force evaluations = 9 16

MPI task timing breakdown:
Section |  min time  |  avg time  |  max time  |%varavg| %total
---------------------------------------------------------------
Pair    | 0.3736     | 0.37375    | 0.37386    |   0.0 | 23.72
Neigh   | 0          | 0          | 0          |   0.0 |  0.00
Comm    | 0.089539   | 0.18327    | 0.46222    |  25.5 | 11.63
Output  | 0          | 0          | 0          |   0.0 |  0.00
Modify  | 0          | 0          | 0          |   0.0 |  0.00
Other   |            | 1.019      |            |       | 64.65

Nlocal:    0.142857 ave 1 max 0 min
Histogram: 24 0 0 0 0 0 0 0 0 4
Nghost:    791.857 ave 864 max 720 min
Histogram: 4 0 0 0 4 16 0 0 0 4
Neighs:    24.5714 ave 204 max 0 min
Histogram: 24 0 0 0 0 0 1 1 0 2

Total # of neighbors = 688
Ave neighs/atom = 172
Neighbor list builds = 0
Dangerous builds = 0
System init for write_data ...
Neighbor list info ...
  1 neighbor list requests
  update every 1 steps, delay 10 steps, check yes
  max neighbors/atom: 2000, page size: 100000
  master list distance cutoff = 8.6825
  ghost atom cutoff = 8.6825
  binsize = 4.34125, bins = 1 1 1
WARNING: Proc sub-domain size < neighbor skin, could lead to lost atoms (../domain.cpp:936)
Lattice spacing in x,y,z = 3.3 3.3 3.3
Created orthogonal box = (0 0 0) to (3.3 3.3 3.3)
  2 by 2 by 7 MPI processor grid
Lattice spacing in x,y,z = 4 4 4
Created 4 atoms
Replicating atoms ...
  orthogonal box = (0 0 0) to (3.3 3.3 3.3)
  2 by 2 by 7 MPI processor grid
  4 atoms
Reading potential file AlCu.eam.alloy with DATE: 2008-10-01
WARNING: Resetting reneighboring criteria during minimization (../min.cpp:168)
Neighbor list info ...
  1 neighbor list requests
  update every 1 steps, delay 0 steps, check yes
  max neighbors/atom: 2000, page size: 100000
  master list distance cutoff = 8.6825
  ghost atom cutoff = 8.6825
  binsize = 4.34125, bins = 1 1 1
WARNING: Proc sub-domain size < neighbor skin, could lead to lost atoms (../domain.cpp:936)
Setting up cg style minimization ...
  Unit style    : metal
Memory usage per processor = 4.07448 Mbytes
Step Temp E_pair E_mol TotEng Press 
       0            0    12.399944            0    12.399944    3079538.6 
      18            0   -2.8947288            0   -2.8947288    1913547.6 
Loop time of 3.28393 on 28 procs for 18 steps with 4 atoms

96.3% CPU use with 28 MPI tasks x no OpenMP threads

Minimization stats:
  Stopping criterion = energy tolerance
  Energy initial, next-to-last, final = 
         12.3999440782     -2.89472884406     -2.89472884406
  Force two-norm initial, final = 62.1295 4.25964e-15
  Force max component initial, final = 17.9352 2.33147e-15
  Final line search alpha, max atom move = 1 2.33147e-15
  Iterations, force evaluations = 18 36

MPI task timing breakdown:
Section |  min time  |  avg time  |  max time  |%varavg| %total
---------------------------------------------------------------
Pair    | 0.81349    | 0.81372    | 0.81432    |   0.0 | 24.78
Neigh   | 0          | 0          | 0          |   0.0 |  0.00
Comm    | 0.20135    | 0.40554    | 1.0134     |  37.3 | 12.35
Output  | 0          | 0          | 0          |   0.0 |  0.00
Modify  | 0          | 0          | 0          |   0.0 |  0.00
Other   |            | 2.065      |            |       | 62.87

Nlocal:    0.142857 ave 1 max 0 min
Histogram: 24 0 0 0 0 0 0 0 0 4
Nghost:    781.571 ave 792 max 720 min
Histogram: 4 0 0 0 0 0 0 0 0 24
Neighs:    22 ave 187 max 0 min
Histogram: 24 0 0 0 0 0 1 1 0 2

Total # of neighbors = 616
Ave neighs/atom = 154
Neighbor list builds = 0
Dangerous builds = 0
System init for write_data ...
Neighbor list info ...
  1 neighbor list requests
  update every 1 steps, delay 10 steps, check yes
  max neighbors/atom: 2000, page size: 100000
  master list distance cutoff = 8.6825
  ghost atom cutoff = 8.6825
  binsize = 4.34125, bins = 1 1 1
WARNING: Proc sub-domain size < neighbor skin, could lead to lost atoms (../domain.cpp:936)
Lattice spacing in x,y,z = 3.4 3.4 3.4
Created orthogonal box = (0 0 0) to (3.4 3.4 3.4)
  2 by 2 by 7 MPI processor grid
Lattice spacing in x,y,z = 4 4 4
Created 4 atoms
Replicating atoms ...
  orthogonal box = (0 0 0) to (3.4 3.4 3.4)
  2 by 2 by 7 MPI processor grid
  4 atoms
Reading potential file AlCu.eam.alloy with DATE: 2008-10-01
WARNING: Resetting reneighboring criteria during minimization (../min.cpp:168)
Neighbor list info ...
  1 neighbor list requests
  update every 1 steps, delay 0 steps, check yes
  max neighbors/atom: 2000, page size: 100000
  master list distance cutoff = 8.6825
  ghost atom cutoff = 8.6825
  binsize = 4.34125, bins = 1 1 1
WARNING: Proc sub-domain size < neighbor skin, could lead to lost atoms (../domain.cpp:936)
Setting up cg style minimization ...
  Unit style    : metal
Memory usage per processor = 4.06685 Mbytes
Step Temp E_pair E_mol TotEng Press 
       0            0    2.0780173            0    2.0780173    1990603.3 
       3            0   -6.2754944            0   -6.2754944    1340115.8 
Loop time of 0.577933 on 28 procs for 3 steps with 4 atoms

96.2% CPU use with 28 MPI tasks x no OpenMP threads

Minimization stats:
  Stopping criterion = energy tolerance
  Energy initial, next-to-last, final = 
         2.07801730746     -6.27549438949     -6.27549438949
  Force two-norm initial, final = 37.9085 4.00039e-15
  Force max component initial, final = 10.9432 1.77636e-15
  Final line search alpha, max atom move = 1 1.77636e-15
  Iterations, force evaluations = 3 5

MPI task timing breakdown:
Section |  min time  |  avg time  |  max time  |%varavg| %total
---------------------------------------------------------------
Pair    | 0.13189    | 0.13195    | 0.13199    |   0.0 | 22.83
Neigh   | 0          | 0          | 0          |   0.0 |  0.00
Comm    | 0.033498   | 0.066564   | 0.16502    |  14.9 | 11.52
Output  | 0          | 0          | 0          |   0.0 |  0.00
Modify  | 0          | 0          | 0          |   0.0 |  0.00
Other   |            | 0.3794     |            |       | 65.65

Nlocal:    0.142857 ave 1 max 0 min
Histogram: 24 0 0 0 0 0 0 0 0 4
Nghost:    680 ave 792 max 605 min
Histogram: 5 0 10 2 0 0 9 0 0 2
Neighs:    20.2857 ave 171 max 0 min
Histogram: 24 0 0 0 0 0 1 1 0 2

Total # of neighbors = 568
Ave neighs/atom = 142
Neighbor list builds = 0
Dangerous builds = 0
System init for write_data ...
Neighbor list info ...
  1 neighbor list requests
  update every 1 steps, delay 10 steps, check yes
  max neighbors/atom: 2000, page size: 100000
  master list distance cutoff = 8.6825
  ghost atom cutoff = 8.6825
  binsize = 4.34125, bins = 1 1 1
WARNING: Proc sub-domain size < neighbor skin, could lead to lost atoms (../domain.cpp:936)
Lattice spacing in x,y,z = 3.5 3.5 3.5
Created orthogonal box = (0 0 0) to (3.5 3.5 3.5)
  2 by 2 by 7 MPI processor grid
Lattice spacing in x,y,z = 4 4 4
Created 4 atoms
Replicating atoms ...
  orthogonal box = (0 0 0) to (3.5 3.5 3.5)
  2 by 2 by 7 MPI processor grid
  4 atoms
Reading potential file AlCu.eam.alloy with DATE: 2008-10-01
WARNING: Resetting reneighboring criteria during minimization (../min.cpp:168)
Neighbor list info ...
  1 neighbor list requests
  update every 1 steps, delay 0 steps, check yes
  max neighbors/atom: 2000, page size: 100000
  master list distance cutoff = 8.6825
  ghost atom cutoff = 8.6825
  binsize = 4.34125, bins = 1 1 1
WARNING: Proc sub-domain size < neighbor skin, could lead to lost atoms (../domain.cpp:936)
Setting up cg style minimization ...
  Unit style    : metal
Memory usage per processor = 4.05107 Mbytes
Step Temp E_pair E_mol TotEng Press 
       0            0   -4.4614289            0   -4.4614289    1264128.4 
       6            0   -8.7653422            0   -8.7653422    919996.83 
Loop time of 1.10293 on 28 procs for 6 steps with 4 atoms

96.3% CPU use with 28 MPI tasks x no OpenMP threads

Minimization stats:
  Stopping criterion = energy tolerance
  Energy initial, next-to-last, final = 
        -4.46142890293      -8.7653422395      -8.7653422395
  Force two-norm initial, final = 22.4855 8.38072e-15
  Force max component initial, final = 6.49101 7.76462e-15
  Final line search alpha, max atom move = 1 7.76462e-15
  Iterations, force evaluations = 6 11

MPI task timing breakdown:
Section |  min time  |  avg time  |  max time  |%varavg| %total
---------------------------------------------------------------
Pair    | 0.26081    | 0.26089    | 0.26096    |   0.0 | 23.65
Neigh   | 0          | 0          | 0          |   0.0 |  0.00
Comm    | 0.066909   | 0.13304    | 0.33007    |  21.1 | 12.06
Output  | 0          | 0          | 0          |   0.0 |  0.00
Modify  | 0          | 0          | 0          |   0.0 |  0.00
Other   |            | 0.709      |            |       | 64.28

Nlocal:    0.142857 ave 1 max 0 min
Histogram: 24 0 0 0 0 0 0 0 0 4
Nghost:    566.857 ave 666 max 500 min
Histogram: 5 0 3 9 0 0 9 0 0 2
Neighs:    18.1429 ave 148 max 0 min
Histogram: 24 0 0 0 0 0 0 2 0 2

Total # of neighbors = 508
Ave neighs/atom = 127
Neighbor list builds = 0
Dangerous builds = 0
System init for write_data ...
Neighbor list info ...
  1 neighbor list requests
  update every 1 steps, delay 10 steps, check yes
  max neighbors/atom: 2000, page size: 100000
  master list distance cutoff = 8.6825
  ghost atom cutoff = 8.6825
  binsize = 4.34125, bins = 1 1 1
WARNING: Proc sub-domain size < neighbor skin, could lead to lost atoms (../domain.cpp:936)
Lattice spacing in x,y,z = 3.6 3.6 3.6
Created orthogonal box = (0 0 0) to (3.6 3.6 3.6)
  7 by 2 by 2 MPI processor grid
Lattice spacing in x,y,z = 4 4 4
Created 4 atoms
Replicating atoms ...
  orthogonal box = (0 0 0) to (3.6 3.6 3.6)
  7 by 2 by 2 MPI processor grid
  4 atoms
Reading potential file AlCu.eam.alloy with DATE: 2008-10-01
WARNING: Resetting reneighboring criteria during minimization (../min.cpp:168)
Neighbor list info ...
  1 neighbor list requests
  update every 1 steps, delay 0 steps, check yes
  max neighbors/atom: 2000, page size: 100000
  master list distance cutoff = 8.6825
  ghost atom cutoff = 8.6825
  binsize = 4.34125, bins = 1 1 1
WARNING: Proc sub-domain size < neighbor skin, could lead to lost atoms (../domain.cpp:936)
Setting up cg style minimization ...
  Unit style    : metal
Memory usage per processor = 4.04344 Mbytes
Step Temp E_pair E_mol TotEng Press 
       0            0   -8.5172082            0   -8.5172082    781436.83 
       3            0   -10.545074            0   -10.545074    614332.46 
Loop time of 0.680977 on 28 procs for 3 steps with 4 atoms

96.3% CPU use with 28 MPI tasks x no OpenMP threads

Minimization stats:
  Stopping criterion = energy tolerance
  Energy initial, next-to-last, final = 
        -8.51720818173     -10.5450741091     -10.5450741091
  Force two-norm initial, final = 12.792 7.75667e-15
  Force max component initial, final = 3.69274 6.55032e-15
  Final line search alpha, max atom move = 1 6.55032e-15
  Iterations, force evaluations = 3 6

MPI task timing breakdown:
Section |  min time  |  avg time  |  max time  |%varavg| %total
---------------------------------------------------------------
Pair    | 0.15397    | 0.154      | 0.15403    |   0.0 | 22.61
Neigh   | 0          | 0          | 0          |   0.0 |  0.00
Comm    | 0.15415    | 0.17077    | 0.19814    |   4.7 | 25.08
Output  | 0          | 0          | 0          |   0.0 |  0.00
Modify  | 0          | 0          | 0          |   0.0 |  0.00
Other   |            | 0.3562     |            |       | 52.31

Nlocal:    0.142857 ave 1 max 0 min
Histogram: 24 0 0 0 0 0 0 0 0 4
Nghost:    485.571 ave 500 max 449 min
Histogram: 8 0 0 0 0 0 0 0 0 20
Neighs:    15.5714 ave 129 max 0 min
Histogram: 24 0 0 0 0 0 1 1 0 2

Total # of neighbors = 436
Ave neighs/atom = 109
Neighbor list builds = 0
Dangerous builds = 0
System init for write_data ...
Neighbor list info ...
  1 neighbor list requests
  update every 1 steps, delay 10 steps, check yes
  max neighbors/atom: 2000, page size: 100000
  master list distance cutoff = 8.6825
  ghost atom cutoff = 8.6825
  binsize = 4.34125, bins = 1 1 1
WARNING: Proc sub-domain size < neighbor skin, could lead to lost atoms (../domain.cpp:936)
Lattice spacing in x,y,z = 3.7 3.7 3.7
Created orthogonal box = (0 0 0) to (3.7 3.7 3.7)
  7 by 2 by 2 MPI processor grid
Lattice spacing in x,y,z = 4 4 4
Created 4 atoms
Replicating atoms ...
  orthogonal box = (0 0 0) to (3.7 3.7 3.7)
  7 by 2 by 2 MPI processor grid
  4 atoms
Reading potential file AlCu.eam.alloy with DATE: 2008-10-01
WARNING: Resetting reneighboring criteria during minimization (../min.cpp:168)
Neighbor list info ...
  1 neighbor list requests
  update every 1 steps, delay 0 steps, check yes
  max neighbors/atom: 2000, page size: 100000
  master list distance cutoff = 8.6825
  ghost atom cutoff = 8.6825
  binsize = 4.34125, bins = 1 1 1
WARNING: Proc sub-domain size < neighbor skin, could lead to lost atoms (../domain.cpp:936)
Setting up cg style minimization ...
  Unit style    : metal
Memory usage per processor = 4.04344 Mbytes
Step Temp E_pair E_mol TotEng Press 
       0            0   -10.942854            0   -10.942854    463119.42 
       5            0   -11.781278            0   -11.781278    390695.21 
Loop time of 1.05304 on 28 procs for 5 steps with 4 atoms

96.3% CPU use with 28 MPI tasks x no OpenMP threads

Minimization stats:
  Stopping criterion = energy tolerance
  Energy initial, next-to-last, final = 
        -10.9428538327     -11.7812779446     -11.7812779446
  Force two-norm initial, final = 6.80828 8.19123e-15
  Force max component initial, final = 1.96538 3.44169e-15
  Final line search alpha, max atom move = 1 3.44169e-15
  Iterations, force evaluations = 5 10

MPI task timing breakdown:
Section |  min time  |  avg time  |  max time  |%varavg| %total
---------------------------------------------------------------
Pair    | 0.24194    | 0.24199    | 0.24203    |   0.0 | 22.98
Neigh   | 0          | 0          | 0          |   0.0 |  0.00
Comm    | 0.23927    | 0.26762    | 0.30527    |   5.7 | 25.41
Output  | 0          | 0          | 0          |   0.0 |  0.00
Modify  | 0          | 0          | 0          |   0.0 |  0.00
Other   |            | 0.5434     |            |       | 51.61

Nlocal:    0.142857 ave 1 max 0 min
Histogram: 24 0 0 0 0 0 0 0 0 4
Nghost:    485.571 ave 500 max 449 min
Histogram: 8 0 0 0 0 0 0 0 0 20
Neighs:    15.5714 ave 129 max 0 min
Histogram: 24 0 0 0 0 0 1 1 0 2

Total # of neighbors = 436
Ave neighs/atom = 109
Neighbor list builds = 0
Dangerous builds = 0
System init for write_data ...
Neighbor list info ...
  1 neighbor list requests
  update every 1 steps, delay 10 steps, check yes
  max neighbors/atom: 2000, page size: 100000
  master list distance cutoff = 8.6825
  ghost atom cutoff = 8.6825
  binsize = 4.34125, bins = 1 1 1
WARNING: Proc sub-domain size < neighbor skin, could lead to lost atoms (../domain.cpp:936)
Lattice spacing in x,y,z = 3.8 3.8 3.8
Created orthogonal box = (0 0 0) to (3.8 3.8 3.8)
  2 by 2 by 7 MPI processor grid
Lattice spacing in x,y,z = 4 4 4
Created 4 atoms
Replicating atoms ...
  orthogonal box = (0 0 0) to (3.8 3.8 3.8)
  2 by 2 by 7 MPI processor grid
  4 atoms
Reading potential file AlCu.eam.alloy with DATE: 2008-10-01
WARNING: Resetting reneighboring criteria during minimization (../min.cpp:168)
Neighbor list info ...
  1 neighbor list requests
  update every 1 steps, delay 0 steps, check yes
  max neighbors/atom: 2000, page size: 100000
  master list distance cutoff = 8.6825
  ghost atom cutoff = 8.6825
  binsize = 4.34125, bins = 1 1 1
WARNING: Proc sub-domain size < neighbor skin, could lead to lost atoms (../domain.cpp:936)
Setting up cg style minimization ...
  Unit style    : metal
Memory usage per processor = 4.03581 Mbytes
Step Temp E_pair E_mol TotEng Press 
       0            0   -12.313543            0   -12.313543    253815.46 
       2            0   -12.583733            0   -12.583733     229039.3 
Loop time of 0.460935 on 28 procs for 2 steps with 4 atoms

96.3% CPU use with 28 MPI tasks x no OpenMP threads

Minimization stats:
  Stopping criterion = energy tolerance
  Energy initial, next-to-last, final = 
        -12.3135428778      -12.583733171      -12.583733171
  Force two-norm initial, final = 3.20319 4.89995e-15
  Force max component initial, final = 0.924681 3.66374e-15
  Final line search alpha, max atom move = 1 3.66374e-15
  Iterations, force evaluations = 2 4

MPI task timing breakdown:
Section |  min time  |  avg time  |  max time  |%varavg| %total
---------------------------------------------------------------
Pair    | 0.10993    | 0.10994    | 0.10996    |   0.0 | 23.85
Neigh   | 0          | 0          | 0          |   0.0 |  0.00
Comm    | 0.033319   | 0.06084    | 0.14303    |  12.9 | 13.20
Output  | 0          | 0          | 0          |   0.0 |  0.00
Modify  | 0          | 0          | 0          |   0.0 |  0.00
Other   |            | 0.2902     |            |       | 62.95

Nlocal:    0.142857 ave 1 max 0 min
Histogram: 24 0 0 0 0 0 0 0 0 4
Nghost:    464.143 ave 500 max 449 min
Histogram: 20 0 0 0 0 0 0 0 0 8
Neighs:    14.2857 ave 118 max 0 min
Histogram: 24 0 0 0 0 0 1 1 0 2

Total # of neighbors = 400
Ave neighs/atom = 100
Neighbor list builds = 0
Dangerous builds = 0
System init for write_data ...
Neighbor list info ...
  1 neighbor list requests
  update every 1 steps, delay 10 steps, check yes
  max neighbors/atom: 2000, page size: 100000
  master list distance cutoff = 8.6825
  ghost atom cutoff = 8.6825
  binsize = 4.34125, bins = 1 1 1
WARNING: Proc sub-domain size < neighbor skin, could lead to lost atoms (../domain.cpp:936)
Lattice spacing in x,y,z = 3.9 3.9 3.9
Created orthogonal box = (0 0 0) to (3.9 3.9 3.9)
  2 by 2 by 7 MPI processor grid
Lattice spacing in x,y,z = 4 4 4
Created 4 atoms
Replicating atoms ...
  orthogonal box = (0 0 0) to (3.9 3.9 3.9)
  2 by 2 by 7 MPI processor grid
  4 atoms
Reading potential file AlCu.eam.alloy with DATE: 2008-10-01
WARNING: Resetting reneighboring criteria during minimization (../min.cpp:168)
Neighbor list info ...
  1 neighbor list requests
  update every 1 steps, delay 0 steps, check yes
  max neighbors/atom: 2000, page size: 100000
  master list distance cutoff = 8.6825
  ghost atom cutoff = 8.6825
  binsize = 4.34125, bins = 1 1 1
WARNING: Proc sub-domain size < neighbor skin, could lead to lost atoms (../domain.cpp:936)
Setting up cg style minimization ...
  Unit style    : metal
Memory usage per processor = 4.03581 Mbytes
Step Temp E_pair E_mol TotEng Press 
       0            0      -12.999            0      -12.999    118220.56 
       5            0   -13.047143            0   -13.047143    113450.63 
Loop time of 0.981094 on 28 procs for 5 steps with 4 atoms

96.2% CPU use with 28 MPI tasks x no OpenMP threads

Minimization stats:
  Stopping criterion = quadratic factors are zero
  Energy initial, next-to-last, final = 
        -12.9990002519     -13.0471430622     -13.0471430622
  Force two-norm initial, final = 1.12008 1.58405e-15
  Force max component initial, final = 0.323339 1.12757e-15
  Final line search alpha, max atom move = 1 1.12757e-15
  Iterations, force evaluations = 5 10

MPI task timing breakdown:
Section |  min time  |  avg time  |  max time  |%varavg| %total
---------------------------------------------------------------
Pair    | 0.24185    | 0.24191    | 0.24196    |   0.0 | 24.66
Neigh   | 0          | 0          | 0          |   0.0 |  0.00
Comm    | 0.055717   | 0.11626    | 0.29708    |  20.8 | 11.85
Output  | 0          | 0          | 0          |   0.0 |  0.00
Modify  | 0          | 0          | 0          |   0.0 |  0.00
Other   |            | 0.6229     |            |       | 63.49

Nlocal:    0.142857 ave 1 max 0 min
Histogram: 24 0 0 0 0 0 0 0 0 4
Nghost:    457 ave 500 max 449 min
Histogram: 24 0 0 0 0 0 0 0 0 4
Neighs:    12.5714 ave 106 max 0 min
Histogram: 24 0 0 0 0 0 1 1 0 2

Total # of neighbors = 352
Ave neighs/atom = 88
Neighbor list builds = 0
Dangerous builds = 0
System init for write_data ...
Neighbor list info ...
  1 neighbor list requests
  update every 1 steps, delay 10 steps, check yes
  max neighbors/atom: 2000, page size: 100000
  master list distance cutoff = 8.6825
  ghost atom cutoff = 8.6825
  binsize = 4.34125, bins = 1 1 1
WARNING: Proc sub-domain size < neighbor skin, could lead to lost atoms (../domain.cpp:936)
Lattice spacing in x,y,z = 4 4 4
Created orthogonal box = (0 0 0) to (4 4 4)
  2 by 2 by 7 MPI processor grid
Lattice spacing in x,y,z = 4 4 4
Created 4 atoms
Replicating atoms ...
  orthogonal box = (0 0 0) to (4 4 4)
  2 by 2 by 7 MPI processor grid
  4 atoms
Reading potential file AlCu.eam.alloy with DATE: 2008-10-01
WARNING: Resetting reneighboring criteria during minimization (../min.cpp:168)
Neighbor list info ...
  1 neighbor list requests
  update every 1 steps, delay 0 steps, check yes
  max neighbors/atom: 2000, page size: 100000
  master list distance cutoff = 8.6825
  ghost atom cutoff = 8.6825
  binsize = 4.34125, bins = 1 1 1
WARNING: Proc sub-domain size < neighbor skin, could lead to lost atoms (../domain.cpp:936)
Setting up cg style minimization ...
  Unit style    : metal
Memory usage per processor = 4.03581 Mbytes
Step Temp E_pair E_mol TotEng Press 
       0            0    -13.25036            0    -13.25036    31455.725 
       1            0    -13.25036            0    -13.25036    31455.725 
Loop time of 0.291935 on 28 procs for 1 steps with 4 atoms

96.3% CPU use with 28 MPI tasks x no OpenMP threads

Minimization stats:
  Stopping criterion = quadratic factors are zero
  Energy initial, next-to-last, final = 
        -13.2503597474     -13.2503597474     -13.2503597474
  Force two-norm initial, final = 1.06428e-16 1.06428e-16
  Force max component initial, final = 5.55112e-17 5.55112e-17
  Final line search alpha, max atom move = 1 5.55112e-17
  Iterations, force evaluations = 1 2

MPI task timing breakdown:
Section |  min time  |  avg time  |  max time  |%varavg| %total
---------------------------------------------------------------
Pair    | 0.065963   | 0.065976   | 0.065989   |   0.0 | 22.60
Neigh   | 0          | 0          | 0          |   0.0 |  0.00
Comm    | 0.022192   | 0.038705   | 0.088017   |   9.6 | 13.26
Output  | 0          | 0          | 0          |   0.0 |  0.00
Modify  | 0          | 0          | 0          |   0.0 |  0.00
Other   |            | 0.1873     |            |       | 64.14

Nlocal:    0.142857 ave 1 max 0 min
Histogram: 24 0 0 0 0 0 0 0 0 4
Nghost:    449.857 ave 450 max 449 min
Histogram: 4 0 0 0 0 0 0 0 0 24
Neighs:    12.5714 ave 106 max 0 min
Histogram: 24 0 0 0 0 0 1 1 0 2

Total # of neighbors = 352
Ave neighs/atom = 88
Neighbor list builds = 0
Dangerous builds = 0
System init for write_data ...
Neighbor list info ...
  1 neighbor list requests
  update every 1 steps, delay 10 steps, check yes
  max neighbors/atom: 2000, page size: 100000
  master list distance cutoff = 8.6825
  ghost atom cutoff = 8.6825
  binsize = 4.34125, bins = 1 1 1
WARNING: Proc sub-domain size < neighbor skin, could lead to lost atoms (../domain.cpp:936)
Lattice spacing in x,y,z = 4.1 4.1 4.1
Created orthogonal box = (0 0 0) to (4.1 4.1 4.1)
  2 by 2 by 7 MPI processor grid
Lattice spacing in x,y,z = 4 4 4
Created 14 atoms
Replicating atoms ...
  orthogonal box = (0 0 0) to (4.1 4.1 4.1)
  2 by 2 by 7 MPI processor grid
  14 atoms
Reading potential file AlCu.eam.alloy with DATE: 2008-10-01
WARNING: Resetting reneighboring criteria during minimization (../min.cpp:168)
Neighbor list info ...
  1 neighbor list requests
  update every 1 steps, delay 0 steps, check yes
  max neighbors/atom: 2000, page size: 100000
  master list distance cutoff = 8.6825
  ghost atom cutoff = 8.6825
  binsize = 4.34125, bins = 1 1 1
WARNING: Proc sub-domain size < neighbor skin, could lead to lost atoms (../domain.cpp:936)
Setting up cg style minimization ...
  Unit style    : metal
Memory usage per processor = 4.02818 Mbytes
Step Temp E_pair E_mol TotEng Press 
       0            0    24324.911            0    24324.911     67802497 
      21            0    267.20071            0    267.20071     15671254 
Loop time of 2.58911 on 28 procs for 21 steps with 14 atoms

96.3% CPU use with 28 MPI tasks x no OpenMP threads

Minimization stats:
  Stopping criterion = energy tolerance
  Energy initial, next-to-last, final = 
         24324.9108244      267.200709716      267.200709716
  Force two-norm initial, final = 33072.8 3.34589e-13
  Force max component initial, final = 6637.31 1.30007e-13
  Final line search alpha, max atom move = 1 1.30007e-13
  Iterations, force evaluations = 21 34

MPI task timing breakdown:
Section |  min time  |  avg time  |  max time  |%varavg| %total
---------------------------------------------------------------
Pair    | 0.41916    | 0.44922    | 0.48387    |   3.5 | 17.35
Neigh   | 2.5034e-05 | 2.9743e-05 | 3.9101e-05 |   0.1 |  0.00
Comm    | 0.092098   | 0.30469    | 0.50749    |  24.9 | 11.77
Output  | 0          | 0          | 0          |   0.0 |  0.00
Modify  | 0          | 0          | 0          |   0.0 |  0.00
Other   |            | 1.835      |            |       | 70.88

Nlocal:    0.5 ave 2 max 0 min
Histogram: 17 0 0 0 0 8 0 0 0 3
Nghost:    1321.79 ave 1404 max 1296 min
Histogram: 8 16 0 0 0 0 0 0 0 4
Neighs:    134.286 ave 631 max 0 min
Histogram: 17 0 0 3 3 2 1 0 1 1

Total # of neighbors = 3760
Ave neighs/atom = 268.571
Neighbor list builds = 1
Dangerous builds = 0
System init for write_data ...
Neighbor list info ...
  1 neighbor list requests
  update every 1 steps, delay 10 steps, check yes
  max neighbors/atom: 2000, page size: 100000
  master list distance cutoff = 8.6825
  ghost atom cutoff = 8.6825
  binsize = 4.34125, bins = 1 1 1
WARNING: Proc sub-domain size < neighbor skin, could lead to lost atoms (../domain.cpp:936)
Lattice spacing in x,y,z = 4.2 4.2 4.2
Created orthogonal box = (0 0 0) to (4.2 4.2 4.2)
  2 by 2 by 7 MPI processor grid
Lattice spacing in x,y,z = 4 4 4
Created 14 atoms
Replicating atoms ...
  orthogonal box = (0 0 0) to (4.2 4.2 4.2)
  2 by 2 by 7 MPI processor grid
  14 atoms
Reading potential file AlCu.eam.alloy with DATE: 2008-10-01
WARNING: Resetting reneighboring criteria during minimization (../min.cpp:168)
Neighbor list info ...
  1 neighbor list requests
  update every 1 steps, delay 0 steps, check yes
  max neighbors/atom: 2000, page size: 100000
  master list distance cutoff = 8.6825
  ghost atom cutoff = 8.6825
  binsize = 4.34125, bins = 1 1 1
WARNING: Proc sub-domain size < neighbor skin, could lead to lost atoms (../domain.cpp:936)
Setting up cg style minimization ...
  Unit style    : metal
Memory usage per processor = 4.02818 Mbytes
Step Temp E_pair E_mol TotEng Press 
       0            0    17039.046            0    17039.046     87120616 
      17            0    221.35601            0    221.35601     12879371 
Loop time of 2.13304 on 28 procs for 17 steps with 14 atoms

96.3% CPU use with 28 MPI tasks x no OpenMP threads

Minimization stats:
  Stopping criterion = energy tolerance
  Energy initial, next-to-last, final = 
         17039.0456062      221.356007032      221.356007032
  Force two-norm initial, final = 22811.5 1.5508e-13
  Force max component initial, final = 4562.52 6.54685e-14
  Final line search alpha, max atom move = 1 6.54685e-14
  Iterations, force evaluations = 17 27

MPI task timing breakdown:
Section |  min time  |  avg time  |  max time  |%varavg| %total
---------------------------------------------------------------
Pair    | 0.35187    | 0.37229    | 0.39663    |   2.7 | 17.45
Neigh   | 2.2888e-05 | 2.9368e-05 | 4.0054e-05 |   0.1 |  0.00
Comm    | 0.091263   | 0.26272    | 0.42006    |  20.4 | 12.32
Output  | 0          | 0          | 0          |   0.0 |  0.00
Modify  | 0          | 0          | 0          |   0.0 |  0.00
Other   |            | 1.498      |            |       | 70.23

Nlocal:    0.5 ave 2 max 0 min
Histogram: 17 0 0 0 0 8 0 0 0 3
Nghost:    1293.79 ave 1314 max 1208 min
Histogram: 4 0 0 0 0 0 0 0 8 16
Neighs:    130.429 ave 616 max 0 min
Histogram: 17 0 0 3 3 2 1 0 1 1

Total # of neighbors = 3652
Ave neighs/atom = 260.857
Neighbor list builds = 1
Dangerous builds = 0
System init for write_data ...
Neighbor list info ...
  1 neighbor list requests
  update every 1 steps, delay 10 steps, check yes
  max neighbors/atom: 2000, page size: 100000
  master list distance cutoff = 8.6825
  ghost atom cutoff = 8.6825
  binsize = 4.34125, bins = 1 1 1
WARNING: Proc sub-domain size < neighbor skin, could lead to lost atoms (../domain.cpp:936)
Lattice spacing in x,y,z = 4.3 4.3 4.3
Created orthogonal box = (0 0 0) to (4.3 4.3 4.3)
  7 by 2 by 2 MPI processor grid
Lattice spacing in x,y,z = 4 4 4
Created 14 atoms
Replicating atoms ...
  orthogonal box = (0 0 0) to (4.3 4.3 4.3)
  7 by 2 by 2 MPI processor grid
  14 atoms
Reading potential file AlCu.eam.alloy with DATE: 2008-10-01
WARNING: Resetting reneighboring criteria during minimization (../min.cpp:168)
Neighbor list info ...
  1 neighbor list requests
  update every 1 steps, delay 0 steps, check yes
  max neighbors/atom: 2000, page size: 100000
  master list distance cutoff = 8.6825
  ghost atom cutoff = 8.6825
  binsize = 4.34125, bins = 1 1 1
WARNING: Proc sub-domain size < neighbor skin, could lead to lost atoms (../domain.cpp:936)
Setting up cg style minimization ...
  Unit style    : metal
Memory usage per processor = 4.03792 Mbytes
Step Temp E_pair E_mol TotEng Press 
       0            0    11980.262            0    11980.262     84619542 
      15            0    181.82126            0    181.82126     10595166 
Loop time of 2.47911 on 28 procs for 15 steps with 14 atoms

96.3% CPU use with 28 MPI tasks x no OpenMP threads

Minimization stats:
  Stopping criterion = energy tolerance
  Energy initial, next-to-last, final = 
         11980.2621182      181.821255828      181.821255828
  Force two-norm initial, final = 15798.7 2.73531e-08
  Force max component initial, final = 3147.84 9.67247e-09
  Final line search alpha, max atom move = 1 9.67247e-09
  Iterations, force evaluations = 15 23

MPI task timing breakdown:
Section |  min time  |  avg time  |  max time  |%varavg| %total
---------------------------------------------------------------
Pair    | 0.51679    | 0.52699    | 0.52798    |   0.4 | 21.26
Neigh   | 2.2888e-05 | 2.8133e-05 | 3.7909e-05 |   0.1 |  0.00
Comm    | 0.52932    | 0.5979     | 0.68311    |   8.4 | 24.12
Output  | 0          | 0          | 0          |   0.0 |  0.00
Modify  | 0          | 0          | 0          |   0.0 |  0.00
Other   |            | 1.354      |            |       | 54.62

Nlocal:    0.5 ave 2 max 0 min
Histogram: 16 0 0 0 0 10 0 0 0 2
Nghost:    1188.46 ave 1313 max 1064 min
Histogram: 3 0 7 3 0 5 6 0 0 4
Neighs:    121 ave 430 max 0 min
Histogram: 16 0 0 0 2 3 3 2 0 2

Total # of neighbors = 3388
Ave neighs/atom = 242
Neighbor list builds = 1
Dangerous builds = 0
System init for write_data ...
Neighbor list info ...
  1 neighbor list requests
  update every 1 steps, delay 10 steps, check yes
  max neighbors/atom: 2000, page size: 100000
  master list distance cutoff = 8.6825
  ghost atom cutoff = 8.6825
  binsize = 4.34125, bins = 1 1 1
WARNING: Proc sub-domain size < neighbor skin, could lead to lost atoms (../domain.cpp:936)
Lattice spacing in x,y,z = 4.4 4.4 4.4
Created orthogonal box = (0 0 0) to (4.4 4.4 4.4)
  2 by 2 by 7 MPI processor grid
Lattice spacing in x,y,z = 4 4 4
Created 14 atoms
Replicating atoms ...
  orthogonal box = (0 0 0) to (4.4 4.4 4.4)
  2 by 2 by 7 MPI processor grid
  14 atoms
Reading potential file AlCu.eam.alloy with DATE: 2008-10-01
WARNING: Resetting reneighboring criteria during minimization (../min.cpp:168)
Neighbor list info ...
  1 neighbor list requests
  update every 1 steps, delay 0 steps, check yes
  max neighbors/atom: 2000, page size: 100000
  master list distance cutoff = 8.6825
  ghost atom cutoff = 8.6825
  binsize = 4.34125, bins = 2 2 2
WARNING: Proc sub-domain size < neighbor skin, could lead to lost atoms (../domain.cpp:936)
Setting up cg style minimization ...
  Unit style    : metal
Memory usage per processor = 4.00465 Mbytes
Step Temp E_pair E_mol TotEng Press 
       0            0    8454.1516            0    8454.1516     73535575 
      21            0    147.74239            0    147.74239    8722573.2 
Loop time of 3.4975 on 28 procs for 21 steps with 14 atoms

96.3% CPU use with 28 MPI tasks x no OpenMP threads

Minimization stats:
  Stopping criterion = energy tolerance
  Energy initial, next-to-last, final = 
         8454.15164348      147.742390725      147.742390725
  Force two-norm initial, final = 10991.9 2.32537e-13
  Force max component initial, final = 2180.85 9.31269e-14
  Final line search alpha, max atom move = 1 9.31269e-14
  Iterations, force evaluations = 21 35

MPI task timing breakdown:
Section |  min time  |  avg time  |  max time  |%varavg| %total
---------------------------------------------------------------
Pair    | 0.79063    | 0.79664    | 0.80277    |   0.6 | 22.78
Neigh   | 2.0981e-05 | 2.6992e-05 | 3.9101e-05 |   0.1 |  0.00
Comm    | 0.3007     | 0.57014    | 1.0023     |  22.9 | 16.30
Output  | 0          | 0          | 0          |   0.0 |  0.00
Modify  | 0          | 0          | 0          |   0.0 |  0.00
Other   |            | 2.131      |            |       | 60.92

Nlocal:    0.5 ave 2 max 0 min
Histogram: 16 0 0 0 0 10 0 0 0 2
Nghost:    1147.96 ave 1312 max 1063 min
Histogram: 6 0 12 1 0 6 2 0 0 1
Neighs:    108.786 ave 497 max 0 min
Histogram: 16 0 0 5 3 2 0 0 1 1

Total # of neighbors = 3046
Ave neighs/atom = 217.571
Neighbor list builds = 1
Dangerous builds = 0
System init for write_data ...
Neighbor list info ...
  1 neighbor list requests
  update every 1 steps, delay 10 steps, check yes
  max neighbors/atom: 2000, page size: 100000
  master list distance cutoff = 8.6825
  ghost atom cutoff = 8.6825
  binsize = 4.34125, bins = 2 2 2
WARNING: Proc sub-domain size < neighbor skin, could lead to lost atoms (../domain.cpp:936)
Lattice spacing in x,y,z = 4.5 4.5 4.5
Created orthogonal box = (0 0 0) to (4.5 4.5 4.5)
  2 by 2 by 7 MPI processor grid
Lattice spacing in x,y,z = 4 4 4
Created 14 atoms
Replicating atoms ...
  orthogonal box = (0 0 0) to (4.5 4.5 4.5)
  2 by 2 by 7 MPI processor grid
  14 atoms
Reading potential file AlCu.eam.alloy with DATE: 2008-10-01
WARNING: Resetting reneighboring criteria during minimization (../min.cpp:168)
Neighbor list info ...
  1 neighbor list requests
  update every 1 steps, delay 0 steps, check yes
  max neighbors/atom: 2000, page size: 100000
  master list distance cutoff = 8.6825
  ghost atom cutoff = 8.6825
  binsize = 4.34125, bins = 2 2 2
WARNING: Proc sub-domain size < neighbor skin, could lead to lost atoms (../domain.cpp:936)
Setting up cg style minimization ...
  Unit style    : metal
Memory usage per processor = 4.00465 Mbytes
Step Temp E_pair E_mol TotEng Press 
       0            0    5981.3845            0    5981.3845     60461218 
      15            0    118.36787            0    118.36787    7183057.6 
Loop time of 2.483 on 28 procs for 15 steps with 14 atoms

96.3% CPU use with 28 MPI tasks x no OpenMP threads

Minimization stats:
  Stopping criterion = energy tolerance
  Energy initial, next-to-last, final = 
         5981.38446722      118.367867926      118.367867926
  Force two-norm initial, final = 7706.92 3.32738e-13
  Force max component initial, final = 1522.4 1.42476e-13
  Final line search alpha, max atom move = 1 1.42476e-13
  Iterations, force evaluations = 15 24

MPI task timing breakdown:
Section |  min time  |  avg time  |  max time  |%varavg| %total
---------------------------------------------------------------
Pair    | 0.54852    | 0.55012    | 0.55365    |   0.3 | 22.16
Neigh   | 2.0981e-05 | 2.5383e-05 | 3.6955e-05 |   0.1 |  0.00
Comm    | 0.2334     | 0.4167     | 0.67718    |  16.9 | 16.78
Output  | 0          | 0          | 0          |   0.0 |  0.00
Modify  | 0          | 0          | 0          |   0.0 |  0.00
Other   |            | 1.516      |            |       | 61.06

Nlocal:    0.5 ave 2 max 0 min
Histogram: 16 0 0 0 0 10 0 0 0 2
Nghost:    1063.5 ave 1064 max 1062 min
Histogram: 2 0 0 0 0 10 0 0 0 16
Neighs:    106.214 ave 485 max 0 min
Histogram: 16 0 0 5 2 3 0 0 1 1

Total # of neighbors = 2974
Ave neighs/atom = 212.429
Neighbor list builds = 1
Dangerous builds = 0
System init for write_data ...
Neighbor list info ...
  1 neighbor list requests
  update every 1 steps, delay 10 steps, check yes
  max neighbors/atom: 2000, page size: 100000
  master list distance cutoff = 8.6825
  ghost atom cutoff = 8.6825
  binsize = 4.34125, bins = 2 2 2
WARNING: Proc sub-domain size < neighbor skin, could lead to lost atoms (../domain.cpp:936)
Lattice spacing in x,y,z = 4.6 4.6 4.6
Created orthogonal box = (0 0 0) to (4.6 4.6 4.6)
  2 by 2 by 7 MPI processor grid
Lattice spacing in x,y,z = 4 4 4
Created 14 atoms
Replicating atoms ...
  orthogonal box = (0 0 0) to (4.6 4.6 4.6)
  2 by 2 by 7 MPI processor grid
  14 atoms
Reading potential file AlCu.eam.alloy with DATE: 2008-10-01
WARNING: Resetting reneighboring criteria during minimization (../min.cpp:168)
Neighbor list info ...
  1 neighbor list requests
  update every 1 steps, delay 0 steps, check yes
  max neighbors/atom: 2000, page size: 100000
  master list distance cutoff = 8.6825
  ghost atom cutoff = 8.6825
  binsize = 4.34125, bins = 2 2 2
WARNING: Proc sub-domain size < neighbor skin, could lead to lost atoms (../domain.cpp:936)
Setting up cg style minimization ...
  Unit style    : metal
Memory usage per processor = 4.00465 Mbytes
Step Temp E_pair E_mol TotEng Press 
       0            0    4237.8248            0    4237.8248     47983461 
      27            0    93.089139            0    93.089139    5916940.2 
Loop time of 4.724 on 28 procs for 27 steps with 14 atoms

96.3% CPU use with 28 MPI tasks x no OpenMP threads

Minimization stats:
  Stopping criterion = energy tolerance
  Energy initial, next-to-last, final = 
         4237.82476121      93.0891389446      93.0891389446
  Force two-norm initial, final = 5426.08 1.32646e-13
  Force max component initial, final = 1066.88 5.46507e-14
  Final line search alpha, max atom move = 1 5.46507e-14
  Iterations, force evaluations = 27 48

MPI task timing breakdown:
Section |  min time  |  avg time  |  max time  |%varavg| %total
---------------------------------------------------------------
Pair    | 1.0762     | 1.0771     | 1.0778     |   0.0 | 22.80
Neigh   | 2.0981e-05 | 2.5085e-05 | 3.6955e-05 |   0.1 |  0.00
Comm    | 0.49954    | 0.86016    | 1.3313     |  23.9 | 18.21
Output  | 0          | 0          | 0          |   0.0 |  0.00
Modify  | 0          | 0          | 0          |   0.0 |  0.00
Other   |            | 2.787      |            |       | 58.99

Nlocal:    0.5 ave 2 max 0 min
Histogram: 16 0 0 0 0 10 0 0 0 2
Nghost:    1063.5 ave 1064 max 1062 min
Histogram: 2 0 0 0 0 10 0 0 0 16
Neighs:    99.7857 ave 450 max 0 min
Histogram: 16 0 0 4 3 3 0 0 1 1

Total # of neighbors = 2794
Ave neighs/atom = 199.571
Neighbor list builds = 1
Dangerous builds = 0
System init for write_data ...
Neighbor list info ...
  1 neighbor list requests
  update every 1 steps, delay 10 steps, check yes
  max neighbors/atom: 2000, page size: 100000
  master list distance cutoff = 8.6825
  ghost atom cutoff = 8.6825
  binsize = 4.34125, bins = 2 2 2
WARNING: Proc sub-domain size < neighbor skin, could lead to lost atoms (../domain.cpp:936)
Lattice spacing in x,y,z = 4.7 4.7 4.7
Created orthogonal box = (0 0 0) to (4.7 4.7 4.7)
  2 by 2 by 7 MPI processor grid
Lattice spacing in x,y,z = 4 4 4
Created 14 atoms
Replicating atoms ...
  orthogonal box = (0 0 0) to (4.7 4.7 4.7)
  2 by 2 by 7 MPI processor grid
  14 atoms
Reading potential file AlCu.eam.alloy with DATE: 2008-10-01
WARNING: Resetting reneighboring criteria during minimization (../min.cpp:168)
Neighbor list info ...
  1 neighbor list requests
  update every 1 steps, delay 0 steps, check yes
  max neighbors/atom: 2000, page size: 100000
  master list distance cutoff = 8.6825
  ghost atom cutoff = 8.6825
  binsize = 4.34125, bins = 2 2 2
WARNING: Proc sub-domain size < neighbor skin, could lead to lost atoms (../domain.cpp:936)
Setting up cg style minimization ...
  Unit style    : metal
Memory usage per processor = 3.99683 Mbytes
Step Temp E_pair E_mol TotEng Press 
       0            0    3003.9479            0    3003.9479     37211876 
      22            0    71.332368            0    71.332368    4871912.9 
Loop time of 3.84304 on 28 procs for 22 steps with 14 atoms

96.3% CPU use with 28 MPI tasks x no OpenMP threads

Minimization stats:
  Stopping criterion = energy tolerance
  Energy initial, next-to-last, final = 
         3003.94787674       71.332368088       71.332368088
  Force two-norm initial, final = 3834.95 1.2027e-13
  Force max component initial, final = 750.382 4.79616e-14
  Final line search alpha, max atom move = 1 4.79616e-14
  Iterations, force evaluations = 22 38

MPI task timing breakdown:
Section |  min time  |  avg time  |  max time  |%varavg| %total
---------------------------------------------------------------
Pair    | 0.85723    | 0.85759    | 0.85809    |   0.0 | 22.32
Neigh   | 1.6928e-05 | 2.2088e-05 | 2.8133e-05 |   0.1 |  0.00
Comm    | 0.44326    | 0.7035     | 1.0878     |  24.0 | 18.31
Output  | 0          | 0          | 0          |   0.0 |  0.00
Modify  | 0          | 0          | 0          |   0.0 |  0.00
Other   |            | 2.282      |            |       | 59.38

Nlocal:    0.5 ave 2 max 0 min
Histogram: 17 0 0 0 0 8 0 0 0 3
Nghost:    932.857 ave 1064 max 814 min
Histogram: 4 0 4 7 0 0 8 2 0 3
Neighs:    95.9286 ave 438 max 0 min
Histogram: 17 0 0 3 2 3 1 0 1 1

Total # of neighbors = 2686
Ave neighs/atom = 191.857
Neighbor list builds = 1
Dangerous builds = 0
System init for write_data ...
Neighbor list info ...
  1 neighbor list requests
  update every 1 steps, delay 10 steps, check yes
  max neighbors/atom: 2000, page size: 100000
  master list distance cutoff = 8.6825
  ghost atom cutoff = 8.6825
  binsize = 4.34125, bins = 2 2 2
WARNING: Proc sub-domain size < neighbor skin, could lead to lost atoms (../domain.cpp:936)
Lattice spacing in x,y,z = 4.8 4.8 4.8
Created orthogonal box = (0 0 0) to (4.8 4.8 4.8)
  2 by 2 by 7 MPI processor grid
Lattice spacing in x,y,z = 4 4 4
Created 14 atoms
Replicating atoms ...
  orthogonal box = (0 0 0) to (4.8 4.8 4.8)
  2 by 2 by 7 MPI processor grid
  14 atoms
Reading potential file AlCu.eam.alloy with DATE: 2008-10-01
WARNING: Resetting reneighboring criteria during minimization (../min.cpp:168)
Neighbor list info ...
  1 neighbor list requests
  update every 1 steps, delay 0 steps, check yes
  max neighbors/atom: 2000, page size: 100000
  master list distance cutoff = 8.6825
  ghost atom cutoff = 8.6825
  binsize = 4.34125, bins = 2 2 2
WARNING: Proc sub-domain size < neighbor skin, could lead to lost atoms (../domain.cpp:936)
Setting up cg style minimization ...
  Unit style    : metal
Memory usage per processor = 3.99683 Mbytes
Step Temp E_pair E_mol TotEng Press 
       0            0    2127.8566            0    2127.8566     28401063 
     175            0    28.522473            0    28.522473    3408622.6 
Loop time of 30.4617 on 28 procs for 175 steps with 14 atoms

96.3% CPU use with 28 MPI tasks x no OpenMP threads

Minimization stats:
  Stopping criterion = energy tolerance
  Energy initial, next-to-last, final = 
         2127.85659911      28.5224728607      28.5224728607
  Force two-norm initial, final = 2719.79 4.50499e-07
  Force max component initial, final = 529.546 1.54928e-07
  Final line search alpha, max atom move = 1 1.54928e-07
  Iterations, force evaluations = 175 332

MPI task timing breakdown:
Section |  min time  |  avg time  |  max time  |%varavg| %total
---------------------------------------------------------------
Pair    | 6.8669     | 7.1881     | 7.3165     |   6.9 | 23.60
Neigh   | 5.8889e-05 | 6.7524e-05 | 7.7248e-05 |   0.1 |  0.00
Comm    | 3.2287     | 5.6465     | 9.5569     |  47.3 | 18.54
Output  | 0          | 0          | 0          |   0.0 |  0.00
Modify  | 0          | 0          | 0          |   0.0 |  0.00
Other   |            | 17.63      |            |       | 57.87

Nlocal:    0.5 ave 1 max 0 min
Histogram: 14 0 0 0 0 0 0 0 0 14
Nghost:    877.786 ave 896 max 855 min
Histogram: 4 2 1 1 2 6 4 0 0 8
Neighs:    87.4286 ave 240 max 0 min
Histogram: 14 0 0 0 1 2 3 3 2 3

Total # of neighbors = 2448
Ave neighs/atom = 174.857
Neighbor list builds = 3
Dangerous builds = 0
System init for write_data ...
Neighbor list info ...
  1 neighbor list requests
  update every 1 steps, delay 10 steps, check yes
  max neighbors/atom: 2000, page size: 100000
  master list distance cutoff = 8.6825
  ghost atom cutoff = 8.6825
  binsize = 4.34125, bins = 2 2 2
WARNING: Proc sub-domain size < neighbor skin, could lead to lost atoms (../domain.cpp:936)
Lattice spacing in x,y,z = 4.9 4.9 4.9
Created orthogonal box = (0 0 0) to (4.9 4.9 4.9)
  2 by 2 by 7 MPI processor grid
Lattice spacing in x,y,z = 4 4 4
Created 14 atoms
Replicating atoms ...
  orthogonal box = (0 0 0) to (4.9 4.9 4.9)
  2 by 2 by 7 MPI processor grid
  14 atoms
Reading potential file AlCu.eam.alloy with DATE: 2008-10-01
WARNING: Resetting reneighboring criteria during minimization (../min.cpp:168)
Neighbor list info ...
  1 neighbor list requests
  update every 1 steps, delay 0 steps, check yes
  max neighbors/atom: 2000, page size: 100000
  master list distance cutoff = 8.6825
  ghost atom cutoff = 8.6825
  binsize = 4.34125, bins = 2 2 2
WARNING: Proc sub-domain size < neighbor skin, could lead to lost atoms (../domain.cpp:936)
Setting up cg style minimization ...
  Unit style    : metal
Memory usage per processor = 3.99683 Mbytes
Step Temp E_pair E_mol TotEng Press 
       0            0    1503.9931            0    1503.9931     21426815 
      18            0    36.626964            0    36.626964    3296542.6 
Loop time of 3.01104 on 28 procs for 18 steps with 14 atoms

96.3% CPU use with 28 MPI tasks x no OpenMP threads

Minimization stats:
  Stopping criterion = energy tolerance
  Energy initial, next-to-last, final = 
         1503.99305943      36.6269639707      36.6269639707
  Force two-norm initial, final = 1934.68 9.81362e-14
  Force max component initial, final = 374.814 3.03785e-14
  Final line search alpha, max atom move = 1 3.03785e-14
  Iterations, force evaluations = 18 31

MPI task timing breakdown:
Section |  min time  |  avg time  |  max time  |%varavg| %total
---------------------------------------------------------------
Pair    | 0.67856    | 0.68909    | 0.69862    |   0.8 | 22.89
Neigh   | 1.5974e-05 | 1.9942e-05 | 2.5988e-05 |   0.1 |  0.00
Comm    | 0.22256    | 0.43574    | 0.88852    |  27.0 | 14.47
Output  | 0          | 0          | 0          |   0.0 |  0.00
Modify  | 0          | 0          | 0          |   0.0 |  0.00
Other   |            | 1.886      |            |       | 62.64

Nlocal:    0.5 ave 2 max 0 min
Histogram: 17 0 0 0 0 8 0 0 0 3
Nghost:    831.5 ave 896 max 814 min
Histogram: 16 1 7 0 0 0 0 0 0 4
Neighs:    81.7857 ave 371 max 0 min
Histogram: 17 0 0 2 4 2 1 0 1 1

Total # of neighbors = 2290
Ave neighs/atom = 163.571
Neighbor list builds = 1
Dangerous builds = 0
System init for write_data ...
Neighbor list info ...
  1 neighbor list requests
  update every 1 steps, delay 10 steps, check yes
  max neighbors/atom: 2000, page size: 100000
  master list distance cutoff = 8.6825
  ghost atom cutoff = 8.6825
  binsize = 4.34125, bins = 2 2 2
WARNING: Proc sub-domain size < neighbor skin, could lead to lost atoms (../domain.cpp:936)
Lattice spacing in x,y,z = 5 5 5
Created orthogonal box = (0 0 0) to (5 5 5)
  7 by 2 by 2 MPI processor grid
Lattice spacing in x,y,z = 4 4 4
Created 14 atoms
Replicating atoms ...
  orthogonal box = (0 0 0) to (5 5 5)
  7 by 2 by 2 MPI processor grid
  14 atoms
Reading potential file AlCu.eam.alloy with DATE: 2008-10-01
WARNING: Resetting reneighboring criteria during minimization (../min.cpp:168)
Neighbor list info ...
  1 neighbor list requests
  update every 1 steps, delay 0 steps, check yes
  max neighbors/atom: 2000, page size: 100000
  master list distance cutoff = 8.6825
  ghost atom cutoff = 8.6825
  binsize = 4.34125, bins = 2 2 2
WARNING: Proc sub-domain size < neighbor skin, could lead to lost atoms (../domain.cpp:936)
Setting up cg style minimization ...
  Unit style    : metal
Memory usage per processor = 3.99683 Mbytes
Step Temp E_pair E_mol TotEng Press 
       0            0     1058.664            0     1058.664     16023638 
      21            0    22.909993            0    22.909993    2706184.3 
Loop time of 3.74201 on 28 procs for 21 steps with 14 atoms

96.3% CPU use with 28 MPI tasks x no OpenMP threads

Minimization stats:
  Stopping criterion = energy tolerance
  Energy initial, next-to-last, final = 
         1058.66398988      22.9099934328      22.9099934328
  Force two-norm initial, final = 1379.53 7.37646e-14
  Force max component initial, final = 265.961 3.90799e-14
  Final line search alpha, max atom move = 1 3.90799e-14
  Iterations, force evaluations = 21 37

MPI task timing breakdown:
Section |  min time  |  avg time  |  max time  |%varavg| %total
---------------------------------------------------------------
Pair    | 0.83564    | 0.83583    | 0.83601    |   0.0 | 22.34
Neigh   | 1.5974e-05 | 2.0197e-05 | 2.6226e-05 |   0.1 |  0.00
Comm    | 0.85873    | 0.94927    | 1.0685     |  10.5 | 25.37
Output  | 0          | 0          | 0          |   0.0 |  0.00
Modify  | 0          | 0          | 0          |   0.0 |  0.00
Other   |            | 1.957      |            |       | 52.30

Nlocal:    0.5 ave 2 max 0 min
Histogram: 16 0 0 0 0 10 0 0 0 2
Nghost:    801.786 ave 832 max 752 min
Histogram: 4 0 4 0 0 0 0 9 7 4
Neighs:    74.9286 ave 260 max 0 min
Histogram: 16 0 0 0 1 3 4 2 0 2

Total # of neighbors = 2098
Ave neighs/atom = 149.857
Neighbor list builds = 1
Dangerous builds = 0
System init for write_data ...
Neighbor list info ...
  1 neighbor list requests
  update every 1 steps, delay 10 steps, check yes
  max neighbors/atom: 2000, page size: 100000
  master list distance cutoff = 8.6825
  ghost atom cutoff = 8.6825
  binsize = 4.34125, bins = 2 2 2
WARNING: Proc sub-domain size < neighbor skin, could lead to lost atoms (../domain.cpp:936)
All done!
Total wall time: 0:01:36
