LAMMPS data file via write_data, version 17 Nov 2016, timestep = 21

14 atoms
1 atom types

0.0000000000000000e+00 5.0000000000000000e+00 xlo xhi
0.0000000000000000e+00 5.0000000000000000e+00 ylo yhi
0.0000000000000000e+00 5.0000000000000000e+00 zlo zhi

Masses

1 26.982

Atoms # atomic

1 1 5.0978907310351174e-01 5.0978907310351163e-01 5.0978907310351196e-01 0 0 0
2 1 4.4533548508980514e-01 2.0000000000000000e+00 1.9999999999999998e+00 0 0 0
3 1 5.0978907310351185e-01 5.0978907310351196e-01 3.4902109268964883e+00 0 0 0
4 1 5.0978907310351229e-01 3.4902109268964883e+00 5.0978907310351151e-01 0 0 0
5 1 5.0978907310351185e-01 3.4902109268964883e+00 3.4902109268964878e+00 0 0 0
6 1 2.0000000000000000e+00 1.9999999999999998e+00 4.4533548508980525e-01 0 0 0
7 1 2.0000000000000000e+00 4.4533548508980558e-01 2.0000000000000000e+00 0 0 0
8 1 2.0000000000000000e+00 2.0000000000000000e+00 3.5546645149101948e+00 0 0 0
9 1 2.0000000000000000e+00 3.5546645149101948e+00 1.9999999999999998e+00 0 0 0
10 1 3.4902109268964883e+00 5.0978907310351185e-01 5.0978907310351185e-01 0 0 0
11 1 3.5546645149101948e+00 2.0000000000000000e+00 2.0000000000000000e+00 0 0 0
12 1 3.4902109268964883e+00 5.0978907310351185e-01 3.4902109268964883e+00 0 0 0
13 1 3.4902109268964883e+00 3.4902109268964878e+00 5.0978907310351151e-01 0 0 0
14 1 3.4902109268964883e+00 3.4902109268964878e+00 3.4902109268964878e+00 0 0 0

Velocities

1 0.0000000000000000e+00 0.0000000000000000e+00 0.0000000000000000e+00
2 0.0000000000000000e+00 0.0000000000000000e+00 0.0000000000000000e+00
3 0.0000000000000000e+00 0.0000000000000000e+00 0.0000000000000000e+00
4 0.0000000000000000e+00 0.0000000000000000e+00 0.0000000000000000e+00
5 0.0000000000000000e+00 0.0000000000000000e+00 0.0000000000000000e+00
6 0.0000000000000000e+00 0.0000000000000000e+00 0.0000000000000000e+00
7 0.0000000000000000e+00 0.0000000000000000e+00 0.0000000000000000e+00
8 0.0000000000000000e+00 0.0000000000000000e+00 0.0000000000000000e+00
9 0.0000000000000000e+00 0.0000000000000000e+00 0.0000000000000000e+00
10 0.0000000000000000e+00 0.0000000000000000e+00 0.0000000000000000e+00
11 0.0000000000000000e+00 0.0000000000000000e+00 0.0000000000000000e+00
12 0.0000000000000000e+00 0.0000000000000000e+00 0.0000000000000000e+00
13 0.0000000000000000e+00 0.0000000000000000e+00 0.0000000000000000e+00
14 0.0000000000000000e+00 0.0000000000000000e+00 0.0000000000000000e+00
