fcc Si                                  
   3.60000000000000     
     0.445088    0.445088    0.000000
     0.000000    0.445088    0.445088
     0.445088    0.000000    0.445088
   Si
     1
Direct
  0.000000  0.000000  0.000000
 
   20   20   20
 -.17380553739E+01 -.13910153427E+01 -.43453557813E+00 0.89972763893E+00 0.22996854018E+01
 0.34720521358E+01 0.42384391473E+01 0.45830950594E+01 0.46304746690E+01 0.45693824674E+01
 0.45386468317E+01 0.45693824674E+01 0.46304746690E+01 0.45830950594E+01 0.42384391473E+01
 0.34720521358E+01 0.22996854018E+01 0.89972763893E+00 -.43453557813E+00 -.13910153427E+01
 -.13910153427E+01 -.73966684934E+00 0.40264584663E+00 0.17597979151E+01 0.30248556979E+01
 0.39610087002E+01 0.44754675588E+01 0.46308588871E+01 0.45926761604E+01 0.45362916457E+01
 0.45363002014E+01 0.45926969719E+01 0.46308772271E+01 0.44754659965E+01 0.39609863447E+01
 0.30248423102E+01 0.17598343657E+01 0.40274158642E+00 -.73955870275E+00 -.13909678067E+01
 -.43453557813E+00 0.40264584663E+00 0.15603004841E+01 0.27581022921E+01 0.37391324703E+01
 0.43545506151E+01 0.46022391227E+01 0.46030451224E+01 0.45299385734E+01 0.44972286719E+01
 0.45299594166E+01 0.46030744161E+01 0.46022512558E+01 0.43545270521E+01 0.37390959232E+01
 0.27581194191E+01 0.15604226621E+01 0.40284000122E+00 -.43438536131E+00 -.73955870275E+00
 0.89972763893E+00 0.17597979151E+01 0.27581022921E+01 0.36545296138E+01 0.42756430994E+01
 0.45683904037E+01 0.46021268288E+01 0.45217112068E+01 0.44581118557E+01 0.44581175960E+01
 0.45217273613E+01 0.46021417337E+01 0.45683807912E+01 0.42756060002E+01 0.36545154322E+01
 0.27581876343E+01 0.17599996300E+01 0.89995124088E+00 0.40284000122E+00 0.40274158642E+00
 0.22996854018E+01 0.30248556979E+01 0.37391324703E+01 0.42756430994E+01 0.45537087749E+01
 0.45981028887E+01 0.45147512912E+01 0.44261128328E+01 0.43908945718E+01 0.44261073456E+01
 0.45147488298E+01 0.45980992521E+01 0.45536891942E+01 0.42756209739E+01 0.37391662057E+01
 0.30249967624E+01 0.22999004790E+01 0.17599996300E+01 0.15604226621E+01 0.17598343657E+01
 0.34720521358E+01 0.39610087002E+01 0.43545506151E+01 0.45683904037E+01 0.45981028887E+01
 0.45120153958E+01 0.44080021224E+01 0.43428524289E+01 0.43428413625E+01 0.44079819672E+01
 0.45120046699E+01 0.45980993018E+01 0.45683823749E+01 0.43545558151E+01 0.39610727981E+01
 0.34721911917E+01 0.30249967624E+01 0.27581876343E+01 0.27581194191E+01 0.30248423102E+01
 0.42384391473E+01 0.44754675588E+01 0.46022391227E+01 0.46021268288E+01 0.45147512912E+01
 0.44080021224E+01 0.43253886356E+01 0.42943669782E+01 0.43253694016E+01 0.44079871324E+01
 0.45147544613E+01 0.46021369920E+01 0.46022434072E+01 0.44754810026E+01 0.42384910578E+01
 0.39610727981E+01 0.37391662057E+01 0.36545154322E+01 0.37390959232E+01 0.39609863447E+01
 0.45830950594E+01 0.46308588871E+01 0.46030451224E+01 0.45217112068E+01 0.44261128328E+01
 0.43428524289E+01 0.42943669782E+01 0.42943613645E+01 0.43428456696E+01 0.44261216740E+01
 0.45217318181E+01 0.46030577208E+01 0.46308550850E+01 0.45830905003E+01 0.44754810026E+01
 0.43545558151E+01 0.42756209739E+01 0.42756060002E+01 0.43545270521E+01 0.44754659965E+01
 0.46304746690E+01 0.45926761604E+01 0.45299385734E+01 0.44581118557E+01 0.43908945718E+01
 0.43428413625E+01 0.43253694016E+01 0.43428456696E+01 0.43909092808E+01 0.44581351651E+01
 0.45299554309E+01 0.45926707050E+01 0.46304515610E+01 0.46308550850E+01 0.46022434072E+01
 0.45683823749E+01 0.45536891942E+01 0.45683807912E+01 0.46022512558E+01 0.46308772271E+01
 0.45693824674E+01 0.45362916457E+01 0.44972286719E+01 0.44581175960E+01 0.44261073456E+01
 0.44079819672E+01 0.44079871324E+01 0.44261216740E+01 0.44581351651E+01 0.44972383933E+01
 0.45362850262E+01 0.45693601693E+01 0.45926707050E+01 0.46030577208E+01 0.46021369920E+01
 0.45980993018E+01 0.45980992521E+01 0.46021417337E+01 0.46030744161E+01 0.45926969719E+01
 0.45386468317E+01 0.45363002014E+01 0.45299594166E+01 0.45217273613E+01 0.45147488298E+01
 0.45120046699E+01 0.45147544613E+01 0.45217318181E+01 0.45299554309E+01 0.45362850262E+01
 0.45386263587E+01 0.45362850262E+01 0.45299554309E+01 0.45217318181E+01 0.45147544613E+01
 0.45120046699E+01 0.45147488298E+01 0.45217273613E+01 0.45299594166E+01 0.45363002014E+01
 0.45693824674E+01 0.45926969719E+01 0.46030744161E+01 0.46021417337E+01 0.45980992521E+01
 0.45980993018E+01 0.46021369920E+01 0.46030577208E+01 0.45926707050E+01 0.45693601693E+01
 0.45362850262E+01 0.44972383933E+01 0.44581351651E+01 0.44261216740E+01 0.44079871324E+01
 0.44079819672E+01 0.44261073456E+01 0.44581175960E+01 0.44972286719E+01 0.45362916457E+01
 0.46304746690E+01 0.46308772271E+01 0.46022512558E+01 0.45683807912E+01 0.45536891942E+01
 0.45683823749E+01 0.46022434072E+01 0.46308550850E+01 0.46304515610E+01 0.45926707050E+01
 0.45299554309E+01 0.44581351651E+01 0.43909092808E+01 0.43428456696E+01 0.43253694016E+01
 0.43428413625E+01 0.43908945718E+01 0.44581118557E+01 0.45299385734E+01 0.45926761604E+01
 0.45830950594E+01 0.44754659965E+01 0.43545270521E+01 0.42756060002E+01 0.42756209739E+01
 0.43545558151E+01 0.44754810026E+01 0.45830905003E+01 0.46308550850E+01 0.46030577208E+01
 0.45217318181E+01 0.44261216740E+01 0.43428456696E+01 0.42943613645E+01 0.42943669782E+01
 0.43428524289E+01 0.44261128328E+01 0.45217112068E+01 0.46030451224E+01 0.46308588871E+01
 0.42384391473E+01 0.39609863447E+01 0.37390959232E+01 0.36545154322E+01 0.37391662057E+01
 0.39610727981E+01 0.42384910578E+01 0.44754810026E+01 0.46022434072E+01 0.46021369920E+01
 0.45147544613E+01 0.44079871324E+01 0.43253694016E+01 0.42943669782E+01 0.43253886356E+01
 0.44080021224E+01 0.45147512912E+01 0.46021268288E+01 0.46022391227E+01 0.44754675588E+01
 0.34720521358E+01 0.30248423102E+01 0.27581194191E+01 0.27581876343E+01 0.30249967624E+01
 0.34721911917E+01 0.39610727981E+01 0.43545558151E+01 0.45683823749E+01 0.45980993018E+01
 0.45120046699E+01 0.44079819672E+01 0.43428413625E+01 0.43428524289E+01 0.44080021224E+01
 0.45120153958E+01 0.45981028887E+01 0.45683904037E+01 0.43545506151E+01 0.39610087002E+01
 0.22996854018E+01 0.17598343657E+01 0.15604226621E+01 0.17599996300E+01 0.22999004790E+01
 0.30249967624E+01 0.37391662057E+01 0.42756209739E+01 0.45536891942E+01 0.45980992521E+01
 0.45147488298E+01 0.44261073456E+01 0.43908945718E+01 0.44261128328E+01 0.45147512912E+01
 0.45981028887E+01 0.45537087749E+01 0.42756430994E+01 0.37391324703E+01 0.30248556979E+01
 0.89972763893E+00 0.40274158642E+00 0.40284000122E+00 0.89995124088E+00 0.17599996300E+01
 0.27581876343E+01 0.36545154322E+01 0.42756060002E+01 0.45683807912E+01 0.46021417337E+01
 0.45217273613E+01 0.44581175960E+01 0.44581118557E+01 0.45217112068E+01 0.46021268288E+01
 0.45683904037E+01 0.42756430994E+01 0.36545296138E+01 0.27581022921E+01 0.17597979151E+01
 -.43453557813E+00 -.73955870275E+00 -.43438536131E+00 0.40284000122E+00 0.15604226621E+01
 0.27581194191E+01 0.37390959232E+01 0.43545270521E+01 0.46022512558E+01 0.46030744161E+01
 0.45299594166E+01 0.44972286719E+01 0.45299385734E+01 0.46030451224E+01 0.46022391227E+01
 0.43545506151E+01 0.37391324703E+01 0.27581022921E+01 0.15603004841E+01 0.40264584663E+00
 -.13910153427E+01 -.13909678067E+01 -.73955870275E+00 0.40274158642E+00 0.17598343657E+01
 0.30248423102E+01 0.39609863447E+01 0.44754659965E+01 0.46308772271E+01 0.45926969719E+01
 0.45363002014E+01 0.45362916457E+01 0.45926761604E+01 0.46308588871E+01 0.44754675588E+01
 0.39610087002E+01 0.30248556979E+01 0.17597979151E+01 0.40264584663E+00 -.73966684934E+00
 -.13911362921E+01 -.73954589997E+00 0.40289781868E+00 0.17599993587E+01 0.30249125867E+01
 0.39609610704E+01 0.44754069664E+01 0.46308330812E+01 0.45926754903E+01 0.45362935636E+01
 0.45362964880E+01 0.45926867344E+01 0.46308660295E+01 0.44754811171E+01 0.39610636068E+01
 0.30249678941E+01 0.17599102939E+01 0.40265122825E+00 -.73982363109E+00 -.13912587908E+01
 -.73954589997E+00 0.14267223897E+00 0.13651556984E+01 0.26348900529E+01 0.36819396612E+01
 0.43479011034E+01 0.46269627814E+01 0.46420279943E+01 0.45720552154E+01 0.45397513830E+01
 0.45720642211E+01 0.46420511645E+01 0.46270204572E+01 0.43480067871E+01 0.36820495091E+01
 0.26348979643E+01 0.13649815912E+01 0.14237346214E+00 -.73978115443E+00 -.10608178778E+01
 0.40289781868E+00 0.13651556984E+01 0.24895212710E+01 0.35112582286E+01 0.42359163847E+01
 0.45988780334E+01 0.46691435400E+01 0.45997996598E+01 0.45377814233E+01 0.45377860572E+01
 0.45998113427E+01 0.46691688004E+01 0.45989402600E+01 0.42360179076E+01 0.35113353972E+01
 0.24894748820E+01 0.13649560204E+01 0.40265398798E+00 -.15141186013E+00 -.15130165744E+00
 0.17599993587E+01 0.26348900529E+01 0.35112582286E+01 0.41916747705E+01 0.45748432177E+01
 0.46794195539E+01 0.46183638188E+01 0.45331427008E+01 0.44983811751E+01 0.45331478170E+01
 0.46183666816E+01 0.46794304292E+01 0.45748880174E+01 0.41917496420E+01 0.35113020614E+01
 0.26348357299E+01 0.17598579808E+01 0.11143343105E+01 0.87682782993E+00 0.11144578712E+01
 0.30249125867E+01 0.36819396612E+01 0.42359163847E+01 0.45748432177E+01 0.46815096913E+01
 0.46273075633E+01 0.45287891792E+01 0.44640702610E+01 0.44640728975E+01 0.45287880725E+01
 0.46272946340E+01 0.46815022304E+01 0.45748689889E+01 0.42359719843E+01 0.36819800717E+01
 0.30248997274E+01 0.24374530262E+01 0.20909393769E+01 0.20909665192E+01 0.24375018847E+01
 0.39609610704E+01 0.43479011034E+01 0.45988780334E+01 0.46794195539E+01 0.46273075633E+01
 0.45270403842E+01 0.44441249824E+01 0.44123009370E+01 0.44441290886E+01 0.45270346508E+01
 0.46272891091E+01 0.46794100909E+01 0.45989015295E+01 0.43479552616E+01 0.39610164997E+01
 0.35385876340E+01 0.32113144476E+01 0.30881477785E+01 0.32113052473E+01 0.35385557175E+01
 0.44754069664E+01 0.46269627814E+01 0.46691435400E+01 0.46183638188E+01 0.45287891792E+01
 0.44441249824E+01 0.43931163637E+01 0.43931215753E+01 0.44441339505E+01 0.45287914168E+01
 0.46183604479E+01 0.46691504561E+01 0.46269935681E+01 0.44754592093E+01 0.42498628292E+01
 0.40254613976E+01 0.38859766873E+01 0.38859617659E+01 0.40254202491E+01 0.42498063776E+01
 0.46308330812E+01 0.46420279943E+01 0.45997996598E+01 0.45331427008E+01 0.44640702610E+01
 0.44123009370E+01 0.43931215753E+01 0.44123134422E+01 0.44640909318E+01 0.45331661891E+01
 0.45998218285E+01 0.46420504029E+01 0.46308603807E+01 0.45597819975E+01 0.44548307086E+01
 0.43623420267E+01 0.43256437660E+01 0.43623207203E+01 0.44547976934E+01 0.45597490109E+01
 0.45926754903E+01 0.45720552154E+01 0.45377814233E+01 0.44983811751E+01 0.44640728975E+01
 0.44441290886E+01 0.44441339505E+01 0.44640909318E+01 0.44984145526E+01 0.45378234055E+01
 0.45720907925E+01 0.45926944915E+01 0.45908232326E+01 0.45635761962E+01 0.45249679316E+01
 0.44974123015E+01 0.44974085140E+01 0.45249602652E+01 0.45635701379E+01 0.45908158519E+01
 0.45362935636E+01 0.45397513830E+01 0.45377860572E+01 0.45331478170E+01 0.45287880725E+01
 0.45270346508E+01 0.45287914168E+01 0.45331661891E+01 0.45378234055E+01 0.45397925441E+01
 0.45363182450E+01 0.45257673684E+01 0.45087761231E+01 0.44883438366E+01 0.44704243196E+01
 0.44631877548E+01 0.44704246484E+01 0.44883502156E+01 0.45087860918E+01 0.45257659284E+01
 0.45362964880E+01 0.45720642211E+01 0.45998113427E+01 0.46183666816E+01 0.46272946340E+01
 0.46272891091E+01 0.46183604479E+01 0.45998218285E+01 0.45720907925E+01 0.45363182450E+01
 0.44945401236E+01 0.44499976206E+01 0.44074964278E+01 0.43733642957E+01 0.43541444957E+01
 0.43541409622E+01 0.43733611121E+01 0.44075030834E+01 0.44500090309E+01 0.44945388480E+01
 0.45926867344E+01 0.46420511645E+01 0.46691688004E+01 0.46794304292E+01 0.46815022304E+01
 0.46794100909E+01 0.46691504561E+01 0.46420504029E+01 0.45926944915E+01 0.45257673684E+01
 0.44499976206E+01 0.43736179081E+01 0.43069812478E+01 0.42610678365E+01 0.42446277514E+01
 0.42610532022E+01 0.43069713830E+01 0.43736256365E+01 0.44500112295E+01 0.45257692865E+01
 0.46308660295E+01 0.46270204572E+01 0.45989402600E+01 0.45748880174E+01 0.45748689889E+01
 0.45989015295E+01 0.46269935681E+01 0.46308603807E+01 0.45908232326E+01 0.45087761231E+01
 0.44074964278E+01 0.43069812478E+01 0.42253055991E+01 0.41792996377E+01 0.41792882028E+01
 0.42252857344E+01 0.43069774033E+01 0.44075109286E+01 0.45087907234E+01 0.45908263793E+01
 0.44754811171E+01 0.43480067871E+01 0.42360179076E+01 0.41917496420E+01 0.42359719843E+01
 0.43479552616E+01 0.44754592093E+01 0.45597819975E+01 0.45635761962E+01 0.44883438366E+01
 0.43733642957E+01 0.42610678365E+01 0.41792996377E+01 0.41493354996E+01 0.41792866352E+01
 0.42610617529E+01 0.43733752167E+01 0.44883576409E+01 0.45635757153E+01 0.45597789607E+01
 0.39610636068E+01 0.36820495091E+01 0.35113353972E+01 0.35113020614E+01 0.36819800717E+01
 0.39610164997E+01 0.42498628292E+01 0.44548307086E+01 0.45249679316E+01 0.44704243196E+01
 0.43541444957E+01 0.42446277514E+01 0.41792882028E+01 0.41792866352E+01 0.42446295276E+01
 0.43541560663E+01 0.44704333067E+01 0.45249562418E+01 0.44548064347E+01 0.42498620109E+01
 0.30249678941E+01 0.26348979643E+01 0.24894748820E+01 0.26348357299E+01 0.30248997274E+01
 0.35385876340E+01 0.40254613976E+01 0.43623420267E+01 0.44974123015E+01 0.44631877548E+01
 0.43541409622E+01 0.42610532022E+01 0.42252857344E+01 0.42610617529E+01 0.43541560663E+01
 0.44631957437E+01 0.44973939264E+01 0.43622991124E+01 0.40254293047E+01 0.35386071733E+01
 0.17599102939E+01 0.13649815912E+01 0.13649560204E+01 0.17598579808E+01 0.24374530262E+01
 0.32113144476E+01 0.38859766873E+01 0.43256437660E+01 0.44974085140E+01 0.44704246484E+01
 0.43733611121E+01 0.43069713830E+01 0.43069774033E+01 0.43733752167E+01 0.44704333067E+01
 0.44973939264E+01 0.43256004353E+01 0.38859266569E+01 0.32112956633E+01 0.24374828453E+01
 0.40265122825E+00 0.14237346214E+00 0.40265398798E+00 0.11143343105E+01 0.20909393769E+01
 0.30881477785E+01 0.38859617659E+01 0.43623207203E+01 0.45249602652E+01 0.44883502156E+01
 0.44075030834E+01 0.43736256365E+01 0.44075109286E+01 0.44883576409E+01 0.45249562418E+01
 0.43622991124E+01 0.38859266569E+01 0.30881113749E+01 0.20909132932E+01 0.11143225756E+01
 -.73982363109E+00 -.73978115443E+00 -.15141186013E+00 0.87682782993E+00 0.20909665192E+01
 0.32113052473E+01 0.40254202491E+01 0.44547976934E+01 0.45635701379E+01 0.45087860918E+01
 0.44500090309E+01 0.44500112295E+01 0.45087907234E+01 0.45635757153E+01 0.44548064347E+01
 0.40254293047E+01 0.32112956633E+01 0.20909132932E+01 0.87673069855E+00 -.15151128483E+00
 -.13912587908E+01 -.10608178778E+01 -.15130165744E+00 0.11144578712E+01 0.24375018847E+01
 0.35385557175E+01 0.42498063776E+01 0.45597490109E+01 0.45908158519E+01 0.45257659284E+01
 0.44945388480E+01 0.45257692865E+01 0.45908263793E+01 0.45597789607E+01 0.42498620109E+01
 0.35386071733E+01 0.24374828453E+01 0.11143225756E+01 -.15151128483E+00 -.10609780376E+01
 -.43471276848E+00 0.40262323281E+00 0.15604164069E+01 0.27582547172E+01 0.37392300196E+01
 0.43545750043E+01 0.46022262814E+01 0.46030300403E+01 0.45299296193E+01 0.44972208731E+01
 0.45299503811E+01 0.46030640227E+01 0.46022423017E+01 0.43545364641E+01 0.37391517662E+01
 0.27582247107E+01 0.15605202114E+01 0.40283661263E+00 -.43453525035E+00 -.73979094396E+00
 0.40262323281E+00 0.13650573628E+01 0.24896196066E+01 0.35114313810E+01 0.42360320653E+01
 0.45989012740E+01 0.46691240583E+01 0.45997890131E+01 0.45377871407E+01 0.45377919380E+01
 0.45998076293E+01 0.46691520054E+01 0.45989090416E+01 0.42359933749E+01 0.35113715487E+01
 0.24896104979E+01 0.13651404267E+01 0.40274773474E+00 -.15152315197E+00 -.15158298401E+00
 0.15604164069E+01 0.24896196066E+01 0.34248503973E+01 0.41576333009E+01 0.45792892830E+01
 0.47062903236E+01 0.46540279873E+01 0.45701930565E+01 0.45356059556E+01 0.45701829366E+01
 0.46540255083E+01 0.47063001786E+01 0.45792889519E+01 0.41576018531E+01 0.34248018863E+01
 0.24895938728E+01 0.15604297657E+01 0.87664483727E+00 0.62527550510E+00 0.87661940670E+00
 0.27582547172E+01 0.35114313810E+01 0.41576333009E+01 0.45691967840E+01 0.47215985718E+01
 0.46876870332E+01 0.45930176640E+01 0.45286228744E+01 0.45286051705E+01 0.45929807182E+01
 0.46876617100E+01 0.47215952559E+01 0.45691959658E+01 0.41576079345E+01 0.35113751752E+01
 0.27581874705E+01 0.20907995618E+01 0.16988588830E+01 0.16988777237E+01 0.20908512263E+01
 0.37392300196E+01 0.42360320653E+01 0.45792892830E+01 0.47215985718E+01 0.46989672903E+01
 0.46048752708E+01 0.45219689420E+01 0.44896130574E+01 0.45219301642E+01 0.46048246720E+01
 0.46989362324E+01 0.47215955031E+01 0.45792908866E+01 0.42360029573E+01 0.37391539900E+01
 0.32112141526E+01 0.28075560639E+01 0.26565152932E+01 0.28076261668E+01 0.32113127997E+01
 0.43545750043E+01 0.45989012740E+01 0.47062903236E+01 0.46876870332E+01 0.46048752708E+01
 0.45193071385E+01 0.44662518198E+01 0.44662372606E+01 0.45192711182E+01 0.46048375684E+01
 0.46876690861E+01 0.47062950330E+01 0.45989020830E+01 0.43545358248E+01 0.40253966980E+01
 0.37110739037E+01 0.35192424623E+01 0.35192841669E+01 0.37111693552E+01 0.40254840181E+01
 0.46022262814E+01 0.46691240583E+01 0.46540279873E+01 0.45930176640E+01 0.45219689420E+01
 0.44662518198E+01 0.44452480273E+01 0.44662492073E+01 0.45219597671E+01 0.45930066333E+01
 0.46540272294E+01 0.46691348919E+01 0.46022233900E+01 0.44547984457E+01 0.42705704694E+01
 0.41180415249E+01 0.40589766488E+01 0.41181045739E+01 0.42706484302E+01 0.44548425862E+01
 0.46030300403E+01 0.45997890131E+01 0.45701930565E+01 0.45286228744E+01 0.44896130574E+01
 0.44662372606E+01 0.44662492073E+01 0.44896373750E+01 0.45286398688E+01 0.45702013470E+01
 0.45998003108E+01 0.46030448220E+01 0.45635730352E+01 0.44859307047E+01 0.43992614530E+01
 0.43423736102E+01 0.43423989332E+01 0.43993141554E+01 0.44859678766E+01 0.45635756767E+01
 0.45299296193E+01 0.45377871407E+01 0.45356059556E+01 0.45286051705E+01 0.45219301642E+01
 0.45192711182E+01 0.45219597671E+01 0.45286398688E+01 0.45356267680E+01 0.45378008416E+01
 0.45299506638E+01 0.45087953555E+01 0.44736559944E+01 0.44289964055E+01 0.43902938335E+01
 0.43749080529E+01 0.43903202579E+01 0.44290200029E+01 0.44736535091E+01 0.45087731384E+01
 0.44972208731E+01 0.45377919380E+01 0.45701829366E+01 0.45929807182E+01 0.46048246720E+01
 0.46048375684E+01 0.45930066333E+01 0.45702013470E+01 0.45378008416E+01 0.44972370340E+01
 0.44500292657E+01 0.43987367684E+01 0.43483894848E+01 0.43069057780E+01 0.42830691559E+01
 0.42830780664E+01 0.43069183862E+01 0.43483814278E+01 0.43987054262E+01 0.44499970291E+01
 0.45299503811E+01 0.45998076293E+01 0.46540255083E+01 0.46876617100E+01 0.46989362324E+01
 0.46876690861E+01 0.46540272294E+01 0.45998003108E+01 0.45299506638E+01 0.44500292657E+01
 0.43661097114E+01 0.42854838959E+01 0.42170738128E+01 0.41706162375E+01 0.41540923541E+01
 0.41706228514E+01 0.42170669292E+01 0.42854521696E+01 0.43660691866E+01 0.44500053174E+01
 0.46030640227E+01 0.46691520054E+01 0.47063001786E+01 0.47215952559E+01 0.47215955031E+01
 0.47062950330E+01 0.46691348919E+01 0.46030448220E+01 0.45087953555E+01 0.43987367684E+01
 0.42854838959E+01 0.41815765051E+01 0.41010767663E+01 0.40568775169E+01 0.40568808858E+01
 0.41010758025E+01 0.41815554120E+01 0.42854466560E+01 0.43987080208E+01 0.45087945673E+01
 0.46022423017E+01 0.45989090416E+01 0.45792889519E+01 0.45691959658E+01 0.45792908866E+01
 0.45989020830E+01 0.46022233900E+01 0.45635730352E+01 0.44736559944E+01 0.43483894848E+01
 0.42170738128E+01 0.41010767663E+01 0.40207764148E+01 0.39920051228E+01 0.40207779722E+01
 0.41010685825E+01 0.42170515879E+01 0.43483679635E+01 0.44736535091E+01 0.45635894887E+01
 0.43545364641E+01 0.42359933749E+01 0.41576018531E+01 0.41576079345E+01 0.42360029573E+01
 0.43545358248E+01 0.44547984457E+01 0.44859307047E+01 0.44289964055E+01 0.43069057780E+01
 0.41706162375E+01 0.40568775169E+01 0.39920051228E+01 0.39920048763E+01 0.40568740729E+01
 0.41706066617E+01 0.43068964315E+01 0.44289971602E+01 0.44859433825E+01 0.44548115407E+01
 0.37391517662E+01 0.35113715487E+01 0.34248018863E+01 0.35113751752E+01 0.37391539900E+01
 0.40253966980E+01 0.42705704694E+01 0.43992614530E+01 0.43902938335E+01 0.42830691559E+01
 0.41540923541E+01 0.40568808858E+01 0.40207779722E+01 0.40568740729E+01 0.41540825601E+01
 0.42830626051E+01 0.43902947068E+01 0.43992696216E+01 0.42705797458E+01 0.40254007674E+01
 0.27582247107E+01 0.24896104979E+01 0.24895938728E+01 0.27581874705E+01 0.32112141526E+01
 0.37110739037E+01 0.41180415249E+01 0.43423736102E+01 0.43749080529E+01 0.42830780664E+01
 0.41706228514E+01 0.41010758025E+01 0.41010685825E+01 0.41706066617E+01 0.42830626051E+01
 0.43748970841E+01 0.43423661072E+01 0.41180402302E+01 0.37110884527E+01 0.32112475855E+01
 0.15605202114E+01 0.13651404267E+01 0.15604297657E+01 0.20907995618E+01 0.28075560639E+01
 0.35192424623E+01 0.40589766488E+01 0.43423989332E+01 0.43903202579E+01 0.43069183862E+01
 0.42170669292E+01 0.41815554120E+01 0.42170515879E+01 0.43068964315E+01 0.43902947068E+01
 0.43423661072E+01 0.40589459217E+01 0.35192479011E+01 0.28076261668E+01 0.20909149299E+01
 0.40283661263E+00 0.40274773474E+00 0.87664483727E+00 0.16988588830E+01 0.26565152932E+01
 0.35192841669E+01 0.41181045739E+01 0.43993141554E+01 0.44290200029E+01 0.43483814278E+01
 0.42854521696E+01 0.42854466560E+01 0.43483679635E+01 0.44289971602E+01 0.43992696216E+01
 0.41180402302E+01 0.35192479011E+01 0.26565769302E+01 0.16990335374E+01 0.87684516865E+00
 -.43453525035E+00 -.15152315197E+00 0.62527550510E+00 0.16988777237E+01 0.28076261668E+01
 0.37111693552E+01 0.42706484302E+01 0.44859678766E+01 0.44736535091E+01 0.43987054262E+01
 0.43660691866E+01 0.43987080208E+01 0.44736535091E+01 0.44859433825E+01 0.42705797458E+01
 0.37110884527E+01 0.28076261668E+01 0.16990335374E+01 0.62554131690E+00 -.15131352458E+00
 -.73979094396E+00 -.15158298401E+00 0.87661940670E+00 0.20908512263E+01 0.32113127997E+01
 0.40254840181E+01 0.44548425862E+01 0.45635756767E+01 0.45087731384E+01 0.44499970291E+01
 0.44500053174E+01 0.45087945673E+01 0.45635894887E+01 0.44548115407E+01 0.40254007674E+01
 0.32112475855E+01 0.20909149299E+01 0.87684516865E+00 -.15131352458E+00 -.73966986259E+00
 0.89981799710E+00 0.17597880512E+01 0.27580107226E+01 0.36544392557E+01 0.42756176833E+01
 0.45684234431E+01 0.46021682895E+01 0.45217263274E+01 0.44581037784E+01 0.44581048381E+01
 0.45217201405E+01 0.46021436516E+01 0.45683952923E+01 0.42756255749E+01 0.36545128722E+01
 0.27581400045E+01 0.17599282641E+01 0.89992124862E+00 0.40289989096E+00 0.40286253579E+00
 0.17597880512E+01 0.26347298932E+01 0.35112219600E+01 0.41917362158E+01 0.45749255226E+01
 0.46794710097E+01 0.46183836506E+01 0.45331514924E+01 0.44983885822E+01 0.45331511751E+01
 0.46183631741E+01 0.46794177683E+01 0.45748623188E+01 0.41917196922E+01 0.35113044606E+01
 0.26349134494E+01 0.17600052748E+01 0.11144696061E+01 0.87684537501E+00 0.11143225756E+01
 0.27580107226E+01 0.35112219600E+01 0.41575712339E+01 0.45692588509E+01 0.47216827797E+01
 0.46877248642E+01 0.45930173140E+01 0.45286229130E+01 0.45286196353E+01 0.45929974389E+01
 0.46876689309E+01 0.47215867804E+01 0.45691614439E+01 0.41575487065E+01 0.35113366245E+01
 0.27582451323E+01 0.20909794058E+01 0.16990729802E+01 0.16989714704E+01 0.20907399344E+01
 0.36544392557E+01 0.41917362158E+01 0.45692588509E+01 0.47347457062E+01 0.47234915835E+01
 0.46319671089E+01 0.45491041642E+01 0.45165942222E+01 0.45490814756E+01 0.46319153876E+01
 0.47234012647E+01 0.47346236006E+01 0.45691549158E+01 0.41917326063E+01 0.36545816026E+01
 0.30881470814E+01 0.26566620385E+01 0.24953730304E+01 0.26564831834E+01 0.30879146339E+01
 0.42756176833E+01 0.45749255226E+01 0.47216827797E+01 0.47234915835E+01 0.46455223196E+01
 0.45595529497E+01 0.45054097759E+01 0.45053928340E+01 0.45595080146E+01 0.46454543540E+01
 0.47233966537E+01 0.47215687574E+01 0.45748410041E+01 0.42756320844E+01 0.38859552579E+01
 0.35193305201E+01 0.32970577595E+01 0.32969821690E+01 0.35191648391E+01 0.38858253126E+01
 0.45684234431E+01 0.46794710097E+01 0.46877248642E+01 0.46319671089E+01 0.45595529497E+01
 0.45009726015E+01 0.44786329820E+01 0.45009421147E+01 0.45595099741E+01 0.46319184364E+01
 0.46876573551E+01 0.46793850959E+01 0.45683587888E+01 0.43623070173E+01 0.41180748070E+01
 0.39203891556E+01 0.38444669791E+01 0.39203130038E+01 0.41179971588E+01 0.43622991124E+01
 0.46021682895E+01 0.46183836506E+01 0.45930173140E+01 0.45491041642E+01 0.45054097759E+01
 0.44786329820E+01 0.44786219016E+01 0.45053896425E+01 0.45490936053E+01 0.45930078073E+01
 0.46183478388E+01 0.46021033391E+01 0.45249335827E+01 0.43992544512E+01 0.42677770119E+01
 0.41837791910E+01 0.41837631514E+01 0.42677544714E+01 0.43992692716E+01 0.45249920433E+01
 0.45217263274E+01 0.45331514924E+01 0.45286229130E+01 0.45165942222E+01 0.45053928340E+01
 0.45009421147E+01 0.45053896425E+01 0.45166042514E+01 0.45286482361E+01 0.45331666711E+01
 0.45217026785E+01 0.44883218493E+01 0.44289681521E+01 0.43543865365E+01 0.42910482624E+01
 0.42661245070E+01 0.42910498927E+01 0.43544104427E+01 0.44290216929E+01 0.44883787991E+01
 0.44581037784E+01 0.44983885822E+01 0.45286196353E+01 0.45490814756E+01 0.45595080146E+01
 0.45595099741E+01 0.45490936053E+01 0.45286482361E+01 0.44984203806E+01 0.44581125334E+01
 0.44074885827E+01 0.43483534556E+01 0.42868270006E+01 0.42331119515E+01 0.42009332456E+01
 0.42009335302E+01 0.42331216151E+01 0.42868581323E+01 0.43483960617E+01 0.44075140488E+01
 0.44581048381E+01 0.45331511751E+01 0.45929974389E+01 0.46319153876E+01 0.46454543540E+01
 0.46319184364E+01 0.45930078073E+01 0.45331666711E+01 0.44581125334E+01 0.43736159644E+01
 0.42854465279E+01 0.42004946215E+01 0.41278534830E+01 0.40781279616E+01 0.40603478950E+01
 0.40781178951E+01 0.41278488784E+01 0.42005059782E+01 0.42854659715E+01 0.43736256365E+01
 0.45217201405E+01 0.46183631741E+01 0.46876689309E+01 0.47234012647E+01 0.47233966537E+01
 0.46876573551E+01 0.46183478388E+01 0.45217026785E+01 0.44074885827E+01 0.42854465279E+01
 0.41658492932E+01 0.40599466157E+01 0.39797632527E+01 0.39362777334E+01 0.39362655811E+01
 0.39797367787E+01 0.40599256827E+01 0.41658466278E+01 0.42854593905E+01 0.44075065909E+01
 0.46021436516E+01 0.46794177683E+01 0.47215867804E+01 0.47346236006E+01 0.47215687574E+01
 0.46793850959E+01 0.46021033391E+01 0.44883218493E+01 0.43483534556E+01 0.42004946215E+01
 0.40599466157E+01 0.39426720337E+01 0.38642820102E+01 0.38366462420E+01 0.38642601330E+01
 0.39426408881E+01 0.40599243900E+01 0.42004933173E+01 0.43483755470E+01 0.44883595184E+01
 0.45683952923E+01 0.45748623188E+01 0.45691614439E+01 0.45691549158E+01 0.45748410041E+01
 0.45683587888E+01 0.45249335827E+01 0.44289681521E+01 0.42868270006E+01 0.41278534830E+01
 0.39797632527E+01 0.38642820102E+01 0.38007358525E+01 0.38007303576E+01 0.38642666697E+01
 0.39797433628E+01 0.41278411666E+01 0.42868355540E+01 0.44289991144E+01 0.45249754363E+01
 0.42756255749E+01 0.41917196922E+01 0.41575487065E+01 0.41917326063E+01 0.42756320844E+01
 0.43623070173E+01 0.43992544512E+01 0.43543865365E+01 0.42331119515E+01 0.40781279616E+01
 0.39362777334E+01 0.38366462420E+01 0.38007303576E+01 0.38366494157E+01 0.39362759389E+01
 0.40781200081E+01 0.42331102771E+01 0.43544016511E+01 0.43992794215E+01 0.43623207203E+01
 0.36545128722E+01 0.35113044606E+01 0.35113366245E+01 0.36545816026E+01 0.38859552579E+01
 0.41180748070E+01 0.42677770119E+01 0.42910482624E+01 0.42009332456E+01 0.40603478950E+01
 0.39362655811E+01 0.38642601330E+01 0.38642666697E+01 0.39362759389E+01 0.40603503366E+01
 0.42009325447E+01 0.42910584272E+01 0.42677926721E+01 0.41180660232E+01 0.38859037335E+01
 0.27581400045E+01 0.26349134494E+01 0.27582451323E+01 0.30881470814E+01 0.35193305201E+01
 0.39203891556E+01 0.41837791910E+01 0.42661245070E+01 0.42009335302E+01 0.40781178951E+01
 0.39797367787E+01 0.39426408881E+01 0.39797433628E+01 0.40781200081E+01 0.42009325447E+01
 0.42661378597E+01 0.41838069219E+01 0.39203907233E+01 0.35192609263E+01 0.30880186032E+01
 0.17599282641E+01 0.17600052748E+01 0.20909794058E+01 0.26566620385E+01 0.32970577595E+01
 0.38444669791E+01 0.41837631514E+01 0.42910498927E+01 0.42331216151E+01 0.41278488784E+01
 0.40599256827E+01 0.40599243900E+01 0.41278411666E+01 0.42331102771E+01 0.42910584272E+01
 0.41838069219E+01 0.38445105539E+01 0.32970281188E+01 0.26565278673E+01 0.20908111222E+01
 0.89992124862E+00 0.11144696061E+01 0.16990729802E+01 0.24953730304E+01 0.32969821690E+01
 0.39203130038E+01 0.42677544714E+01 0.43544104427E+01 0.42868581323E+01 0.42005059782E+01
 0.41658466278E+01 0.42004933173E+01 0.42868355540E+01 0.43544016511E+01 0.42677926721E+01
 0.39203907233E+01 0.32970281188E+01 0.24953115850E+01 0.16989171665E+01 0.11143343105E+01
 0.40289989096E+00 0.87684537501E+00 0.16989714704E+01 0.26564831834E+01 0.35191648391E+01
 0.41179971588E+01 0.43992692716E+01 0.44290216929E+01 0.43483960617E+01 0.42854659715E+01
 0.42854593905E+01 0.43483755470E+01 0.44289991144E+01 0.43992794215E+01 0.41180660232E+01
 0.35192609263E+01 0.26565278673E+01 0.16989171665E+01 0.87673858403E+00 0.40284607029E+00
 0.40286253579E+00 0.11143225756E+01 0.20907399344E+01 0.30879146339E+01 0.38858253126E+01
 0.43622991124E+01 0.45249920433E+01 0.44883787991E+01 0.44075140488E+01 0.43736256365E+01
 0.44075065909E+01 0.44883595184E+01 0.45249754363E+01 0.43623207203E+01 0.38859037335E+01
 0.30880186032E+01 0.20908111222E+01 0.11143343105E+01 0.40284607029E+00 0.14266891755E+00
 0.22999601415E+01 0.30250335360E+01 0.37391324703E+01 0.42755273251E+01 0.45535959664E+01
 0.45980557039E+01 0.45147512912E+01 0.44261180769E+01 0.43908904718E+01 0.44261020860E+01
 0.45147488298E+01 0.45981082086E+01 0.45537152316E+01 0.42756573041E+01 0.37391662057E+01
 0.30249014585E+01 0.22997166105E+01 0.17598379060E+01 0.15604226621E+01 0.17600312433E+01
 0.30250335360E+01 0.36819965500E+01 0.42358768409E+01 0.45747575483E+01 0.46814528025E+01
 0.46273080083E+01 0.45288189961E+01 0.44640908228E+01 0.44640735676E+01 0.45287808949E+01