       N       E                     dE             d eps       ncg     rms          rms(c)
DAV:   1    -0.226046508666E+01   -0.22605E+01   -0.14468E+03   792   0.296E+02
DAV:   2    -0.387576009880E+01   -0.16153E+01   -0.15515E+01   996   0.286E+01
DAV:   3    -0.388075884765E+01   -0.49987E-02   -0.49987E-02   774   0.153E+00
DAV:   4    -0.388076036213E+01   -0.15145E-05   -0.15150E-05   954   0.251E-02
DAV:   5    -0.388076036380E+01   -0.16749E-08   -0.47248E-09   690   0.285E-04    0.148E+00
DAV:   6    -0.382376803416E+01    0.56992E-01   -0.33849E-03   720   0.440E-01    0.899E-01
DAV:   7    -0.378974489349E+01    0.34023E-01   -0.85444E-03   720   0.697E-01    0.229E-02
DAV:   8    -0.378975091097E+01   -0.60175E-05   -0.57476E-06   768   0.230E-02
   1 F= -.37897509E+01 E0= -.37891007E+01  d E =-.130037E-02
