diamond Si                              
   5.40000000000000     
     0.000000    0.490819    0.490819
     0.490819    0.000000    0.490819
     0.490819    0.490819    0.000000
   Si
     2
Direct
  0.875000  0.875000  0.875000
  0.125000  0.125000  0.125000
 
   28   28   28
 0.22401570703E+02 0.22302764515E+02 0.21926910784E+02 0.21000344328E+02 0.19336263407E+02
 0.17235261052E+02 0.15438280047E+02 0.14727933533E+02 0.15438425773E+02 0.17235326774E+02
 0.19336019144E+02 0.20999859693E+02 0.21926575429E+02 0.22302872583E+02 0.22401923800E+02
 0.22302872583E+02 0.21926575429E+02 0.20999859693E+02 0.19336019144E+02 0.17235326774E+02
 0.15438425773E+02 0.14727933533E+02 0.15438280047E+02 0.17235261052E+02 0.19336263407E+02
 0.21000344328E+02 0.21926910784E+02 0.22302764515E+02 0.22302764515E+02 0.22537872833E+02
 0.22069299547E+02 0.20464537853E+02 0.17853217000E+02 0.15056051766E+02 0.13235448601E+02
 0.13235549176E+02 0.15056249990E+02 0.17853303565E+02 0.20464412702E+02 0.22069087362E+02
 0.22537797283E+02 0.22302890954E+02 0.21784589249E+02 0.21099767387E+02 0.20219719099E+02
 0.19043919324E+02 0.17564224982E+02 0.16099505269E+02 0.15169704703E+02 0.15169673585E+02
 0.16099538968E+02 0.17564523454E+02 0.19044453000E+02 0.20220194552E+02 0.21099921865E+02
 0.21784464422E+02 0.21926910784E+02 0.22069299547E+02 0.20851087516E+02 0.18100768112E+02
 0.14496705169E+02 0.11400184058E+02 0.10176803124E+02 0.11399969004E+02 0.14496602759E+02
 0.18100940485E+02 0.20851300514E+02 0.22069292777E+02 0.21926761711E+02 0.21099841494E+02
 0.20061387082E+02 0.18940421496E+02 0.17752981363E+02 0.16516560427E+02 0.15326496227E+02
 0.14419308852E+02 0.14075262583E+02 0.14419056984E+02 0.15326448123E+02 0.16516981527E+02
 0.17753584676E+02 0.18940780245E+02 0.20061472384E+02 0.21099921865E+02 0.21000344328E+02
 0.20464537853E+02 0.18100768112E+02 0.14243086999E+02 0.10156153364E+02 0.75172667255E+01
 0.75169773183E+01 0.10155694341E+02 0.14243083701E+02 0.18101191761E+02 0.20464853118E+02
 0.21000297712E+02 0.20219993930E+02 0.18940584454E+02 0.17565381792E+02 0.16217590420E+02
 0.14942758232E+02 0.13796797622E+02 0.12894987503E+02 0.12388521770E+02 0.12388332219E+02
 0.12894642555E+02 0.13796714305E+02 0.14943074264E+02 0.16218043135E+02 0.17565690276E+02
 0.18940780245E+02 0.20220194552E+02 0.19336263407E+02 0.17853217000E+02 0.14496705169E+02
 0.10156153364E+02 0.64647588162E+01 0.50138571756E+01 0.64643326292E+01 0.10155957944E+02
 0.14497152226E+02 0.17853930749E+02 0.19336592035E+02 0.19044250280E+02 0.17753228339E+02
 0.16217844654E+02 0.14708568136E+02 0.13333158933E+02 0.12144685708E+02 0.11199501452E+02
 0.10577869025E+02 0.10359283404E+02 0.10577717164E+02 0.11199401465E+02 0.12144743664E+02
 0.13333268228E+02 0.14708658942E+02 0.16218043135E+02 0.17753584676E+02 0.19044453000E+02
 0.17235261052E+02 0.15056051766E+02 0.11400184058E+02 0.75172667255E+01 0.50138571756E+01
 0.50136625632E+01 0.75170458742E+01 0.11400534557E+02 0.15056961275E+02 0.17236026220E+02
 0.17564594269E+02 0.16516616078E+02 0.14942910258E+02 0.13333451057E+02 0.11858483105E+02
 0.10599473680E+02 0.95981352660E+01 0.88920878329E+01 0.85235550893E+01 0.85234588513E+01
 0.88919959585E+01 0.95982580040E+01 0.10599604157E+02 0.11858352239E+02 0.13333268228E+02
 0.14943074264E+02 0.16516981527E+02 0.17564523454E+02 0.15438280047E+02 0.13235448601E+02
 0.10176803124E+02 0.75169773183E+01 0.64643326292E+01 0.75170458742E+01 0.10177094732E+02
 0.13236019886E+02 0.15438929741E+02 0.16099971008E+02 0.15326558410E+02 0.13796657397E+02
 0.12144731201E+02 0.10599698887E+02 0.92710447615E+01 0.82075697173E+01 0.74300654311E+01
 0.69536969124E+01 0.67927838329E+01 0.69537165880E+01 0.74300677665E+01 0.82075084259E+01
 0.92709242638E+01 0.10599604157E+02 0.12144743664E+02 0.13796714305E+02 0.15326448123E+02
 0.16099538968E+02 0.14727933533E+02 0.13235549176E+02 0.11399969004E+02 0.10155694341E+02
 0.10155957944E+02 0.11400534557E+02 0.13236019886E+02 0.14728201819E+02 0.15169940627E+02
 0.14419412658E+02 0.12894865037E+02 0.11199319048E+02 0.95981013632E+01 0.82076207133E+01
 0.70837637220E+01 0.62426433913E+01 0.56837463015E+01 0.54046819119E+01 0.54048616464E+01
 0.56840040662E+01 0.62425770461E+01 0.70834671583E+01 0.82075084259E+01 0.95982580040E+01
 0.11199401465E+02 0.12894642555E+02 0.14419056984E+02 0.15169673585E+02 0.15438425773E+02
 0.15056249990E+02 0.14496602759E+02 0.14243083701E+02 0.14497152226E+02 0.15056961275E+02
 0.15438929741E+02 0.15169940627E+02 0.14075364325E+02 0.12388385849E+02 0.10577719044E+02
 0.88919530050E+01 0.74300124383E+01 0.62425046848E+01 0.53407603307E+01 0.47140699555E+01
 0.43460887922E+01 0.42248567034E+01 0.43462159286E+01 0.47142389856E+01 0.53408864313E+01
 0.62425770461E+01 0.74300677665E+01 0.88919959585E+01 0.10577717164E+02 0.12388332219E+02
 0.14075262583E+02 0.15169704703E+02 0.17235326774E+02 0.17853303565E+02 0.18100940485E+02
 0.18101191761E+02 0.17853930749E+02 0.17236026220E+02 0.16099971008E+02 0.14419412658E+02
 0.12388385849E+02 0.10359152976E+02 0.85234392504E+01 0.69536601228E+01 0.56837417751E+01
 0.47138717971E+01 0.40229778413E+01 0.35829007091E+01 0.33695131241E+01 0.33694445157E+01
 0.35828531359E+01 0.40231735388E+01 0.47142389856E+01 0.56840040662E+01 0.69537165880E+01
 0.85234588513E+01 0.10359283404E+02 0.12388521770E+02 0.14419308852E+02 0.16099505269E+02
 0.19336019144E+02 0.20464412702E+02 0.20851300514E+02 0.20464853118E+02 0.19336592035E+02
 0.17564594269E+02 0.15326558410E+02 0.12894865037E+02 0.10577719044E+02 0.85234392504E+01
 0.67926911222E+01 0.54047853891E+01 0.43461642837E+01 0.35828220798E+01 0.30744386863E+01
 0.27854483787E+01 0.26919310098E+01 0.27854672524E+01 0.30744637605E+01 0.35828531359E+01
 0.43462159286E+01 0.54048616464E+01 0.67927838329E+01 0.85235550893E+01 0.10577869025E+02
 0.12894987503E+02 0.15326496227E+02 0.17564224982E+02 0.20999859693E+02 0.22069087362E+02
 0.22069292777E+02 0.21000297712E+02 0.19044250280E+02 0.16516616078E+02 0.13796657397E+02
 0.11199319048E+02 0.88919530050E+01 0.69536601228E+01 0.54047853891E+01 0.42250732423E+01
 0.33696504540E+01 0.27855454121E+01 0.24251255664E+01 0.22538947559E+01 0.22539295820E+01
 0.24251619519E+01 0.27854672524E+01 0.33694445157E+01 0.42248567034E+01 0.54046819119E+01
 0.69536969124E+01 0.88920878329E+01 0.11199501452E+02 0.13796797622E+02 0.16516560427E+02
 0.19043919324E+02 0.21926575429E+02 0.22537797283E+02 0.21926761711E+02 0.20219993930E+02
 0.17753228339E+02 0.14942910258E+02 0.12144731201E+02 0.95981013632E+01 0.74300124383E+01
 0.56837417751E+01 0.43461642837E+01 0.33696504540E+01 0.26920882333E+01 0.22540662314E+01
 0.20097868841E+01 0.19314088486E+01 0.20097061297E+01 0.22539295820E+01 0.26919310098E+01
 0.33695131241E+01 0.43460887922E+01 0.56837463015E+01 0.74300654311E+01 0.95981352660E+01
 0.12144685708E+02 0.14942758232E+02 0.17752981363E+02 0.20219719099E+02 0.22302872583E+02
 0.22302890954E+02 0.21099841494E+02 0.18940584454E+02 0.16217844654E+02 0.13333451057E+02
 0.10599698887E+02 0.82076207133E+01 0.62425046848E+01 0.47138717971E+01 0.35828220798E+01
 0.27855454121E+01 0.22540662314E+01 0.19315323419E+01 0.17796004963E+01 0.17795613670E+01
 0.19314088486E+01 0.22538947559E+01 0.27854483787E+01 0.35829007091E+01 0.47140699555E+01
 0.62426433913E+01 0.82075697173E+01 0.10599473680E+02 0.13333158933E+02 0.16217590420E+02
 0.18940421496E+02 0.21099767387E+02 0.22401923800E+02 0.21784589249E+02 0.20061387082E+02
 0.17565381792E+02 0.14708568136E+02 0.11858483105E+02 0.92710447615E+01 0.70837637220E+01
 0.53407603307E+01 0.40229778413E+01 0.30744386863E+01 0.24251255664E+01 0.20097868841E+01
 0.17796004963E+01 0.17059479832E+01 0.17796004963E+01 0.20097868841E+01 0.24251255664E+01
 0.30744386863E+01 0.40229778413E+01 0.53407603307E+01 0.70837637220E+01 0.92710447615E+01
 0.11858483105E+02 0.14708568136E+02 0.17565381792E+02 0.20061387082E+02 0.21784589249E+02
 0.22302872583E+02 0.21099767387E+02 0.18940421496E+02 0.16217590420E+02 0.13333158933E+02
 0.10599473680E+02 0.82075697173E+01 0.62426433913E+01 0.47140699555E+01 0.35829007091E+01
 0.27854483787E+01 0.22538947559E+01 0.19314088486E+01 0.17795613670E+01 0.17796004963E+01
 0.19315323419E+01 0.22540662314E+01 0.27855454121E+01 0.35828220798E+01 0.47138717971E+01
 0.62425046848E+01 0.82076207133E+01 0.10599698887E+02 0.13333451057E+02 0.16217844654E+02
 0.18940584454E+02 0.21099841494E+02 0.22302890954E+02 0.21926575429E+02 0.20219719099E+02
 0.17752981363E+02 0.14942758232E+02 0.12144685708E+02 0.95981352660E+01 0.74300654311E+01
 0.56837463015E+01 0.43460887922E+01 0.33695131241E+01 0.26919310098E+01 0.22539295820E+01
 0.20097061297E+01 0.19314088486E+01 0.20097868841E+01 0.22540662314E+01 0.26920882333E+01
 0.33696504540E+01 0.43461642837E+01 0.56837417751E+01 0.74300124383E+01 0.95981013632E+01
 0.12144731201E+02 0.14942910258E+02 0.17753228339E+02 0.20219993930E+02 0.21926761711E+02
 0.22537797283E+02 0.20999859693E+02 0.19043919324E+02 0.16516560427E+02 0.13796797622E+02
 0.11199501452E+02 0.88920878329E+01 0.69536969124E+01 0.54046819119E+01 0.42248567034E+01
 0.33694445157E+01 0.27854672524E+01 0.24251619519E+01 0.22539295820E+01 0.22538947559E+01
 0.24251255664E+01 0.27855454121E+01 0.33696504540E+01 0.42250732423E+01 0.54047853891E+01
 0.69536601228E+01 0.88919530050E+01 0.11199319048E+02 0.13796657397E+02 0.16516616078E+02
 0.19044250280E+02 0.21000297712E+02 0.22069292777E+02 0.22069087362E+02 0.19336019144E+02
 0.17564224982E+02 0.15326496227E+02 0.12894987503E+02 0.10577869025E+02 0.85235550893E+01
 0.67927838329E+01 0.54048616464E+01 0.43462159286E+01 0.35828531359E+01 0.30744637605E+01
 0.27854672524E+01 0.26919310098E+01 0.27854483787E+01 0.30744386863E+01 0.35828220798E+01
 0.43461642837E+01 0.54047853891E+01 0.67926911222E+01 0.85234392504E+01 0.10577719044E+02
 0.12894865037E+02 0.15326558410E+02 0.17564594269E+02 0.19336592035E+02 0.20464853118E+02
 0.20851300514E+02 0.20464412702E+02 0.17235326774E+02 0.16099505269E+02 0.14419308852E+02
 0.12388521770E+02 0.10359283404E+02 0.85234588513E+01 0.69537165880E+01 0.56840040662E+01
 0.47142389856E+01 0.40231735388E+01 0.35828531359E+01 0.33694445157E+01 0.33695131241E+01
 0.35829007091E+01 0.40229778413E+01 0.47138717971E+01 0.56837417751E+01 0.69536601228E+01
 0.85234392504E+01 0.10359152976E+02 0.12388385849E+02 0.14419412658E+02 0.16099971008E+02
 0.17236026220E+02 0.17853930749E+02 0.18101191761E+02 0.18100940485E+02 0.17853303565E+02
 0.15438425773E+02 0.15169704703E+02 0.14075262583E+02 0.12388332219E+02 0.10577717164E+02
 0.88919959585E+01 0.74300677665E+01 0.62425770461E+01 0.53408864313E+01 0.47142389856E+01
 0.43462159286E+01 0.42248567034E+01 0.43460887922E+01 0.47140699555E+01 0.53407603307E+01
 0.62425046848E+01 0.74300124383E+01 0.88919530050E+01 0.10577719044E+02 0.12388385849E+02
 0.14075364325E+02 0.15169940627E+02 0.15438929741E+02 0.15056961275E+02 0.14497152226E+02
 0.14243083701E+02 0.14496602759E+02 0.15056249990E+02 0.14727933533E+02 0.15169673585E+02
 0.14419056984E+02 0.12894642555E+02 0.11199401465E+02 0.95982580040E+01 0.82075084259E+01
 0.70834671583E+01 0.62425770461E+01 0.56840040662E+01 0.54048616464E+01 0.54046819119E+01
 0.56837463015E+01 0.62426433913E+01 0.70837637220E+01 0.82076207133E+01 0.95981013632E+01
 0.11199319048E+02 0.12894865037E+02 0.14419412658E+02 0.15169940627E+02 0.14728201819E+02
 0.13236019886E+02 0.11400534557E+02 0.10155957944E+02 0.10155694341E+02 0.11399969004E+02
 0.13235549176E+02 0.15438280047E+02 0.16099538968E+02 0.15326448123E+02 0.13796714305E+02
 0.12144743664E+02 0.10599604157E+02 0.92709242638E+01 0.82075084259E+01 0.74300677665E+01
 0.69537165880E+01 0.67927838329E+01 0.69536969124E+01 0.74300654311E+01 0.82075697173E+01
 0.92710447615E+01 0.10599698887E+02 0.12144731201E+02 0.13796657397E+02 0.15326558410E+02
 0.16099971008E+02 0.15438929741E+02 0.13236019886E+02 0.10177094732E+02 0.75170458742E+01
 0.64643326292E+01 0.75169773183E+01 0.10176803124E+02 0.13235448601E+02 0.17235261052E+02
 0.17564523454E+02 0.16516981527E+02 0.14943074264E+02 0.13333268228E+02 0.11858352239E+02
 0.10599604157E+02 0.95982580040E+01 0.88919959585E+01 0.85234588513E+01 0.85235550893E+01
 0.88920878329E+01 0.95981352660E+01 0.10599473680E+02 0.11858483105E+02 0.13333451057E+02
 0.14942910258E+02 0.16516616078E+02 0.17564594269E+02 0.17236026220E+02 0.15056961275E+02
 0.11400534557E+02 0.75170458742E+01 0.50136625632E+01 0.50138571756E+01 0.75172667255E+01
 0.11400184058E+02 0.15056051766E+02 0.19336263407E+02 0.19044453000E+02 0.17753584676E+02
 0.16218043135E+02 0.14708658942E+02 0.13333268228E+02 0.12144743664E+02 0.11199401465E+02
 0.10577717164E+02 0.10359283404E+02 0.10577869025E+02 0.11199501452E+02 0.12144685708E+02
 0.13333158933E+02 0.14708568136E+02 0.16217844654E+02 0.17753228339E+02 0.19044250280E+02
 0.19336592035E+02 0.17853930749E+02 0.14497152226E+02 0.10155957944E+02 0.64643326292E+01
 0.50138571756E+01 0.64647588162E+01 0.10156153364E+02 0.14496705169E+02 0.17853217000E+02
 0.21000344328E+02 0.20220194552E+02 0.18940780245E+02 0.17565690276E+02 0.16218043135E+02
 0.14943074264E+02 0.13796714305E+02 0.12894642555E+02 0.12388332219E+02 0.12388521770E+02
 0.12894987503E+02 0.13796797622E+02 0.14942758232E+02 0.16217590420E+02 0.17565381792E+02
 0.18940584454E+02 0.20219993930E+02 0.21000297712E+02 0.20464853118E+02 0.18101191761E+02
 0.14243083701E+02 0.10155694341E+02 0.75169773183E+01 0.75172667255E+01 0.10156153364E+02
 0.14243086999E+02 0.18100768112E+02 0.20464537853E+02 0.21926910784E+02 0.21099921865E+02
 0.20061472384E+02 0.18940780245E+02 0.17753584676E+02 0.16516981527E+02 0.15326448123E+02
 0.14419056984E+02 0.14075262583E+02 0.14419308852E+02 0.15326496227E+02 0.16516560427E+02
 0.17752981363E+02 0.18940421496E+02 0.20061387082E+02 0.21099841494E+02 0.21926761711E+02
 0.22069292777E+02 0.20851300514E+02 0.18100940485E+02 0.14496602759E+02 0.11399969004E+02
 0.10176803124E+02 0.11400184058E+02 0.14496705169E+02 0.18100768112E+02 0.20851087516E+02
 0.22069299547E+02 0.22302764515E+02 0.21784464422E+02 0.21099921865E+02 0.20220194552E+02
 0.19044453000E+02 0.17564523454E+02 0.16099538968E+02 0.15169673585E+02 0.15169704703E+02
 0.16099505269E+02 0.17564224982E+02 0.19043919324E+02 0.20219719099E+02 0.21099767387E+02
 0.21784589249E+02 0.22302890954E+02 0.22537797283E+02 0.22069087362E+02 0.20464412702E+02
 0.17853303565E+02 0.15056249990E+02 0.13235549176E+02 0.13235448601E+02 0.15056051766E+02
 0.17853217000E+02 0.20464537853E+02 0.22069299547E+02 0.22537872833E+02 0.22302548924E+02
 0.22537182744E+02 0.22068826174E+02 0.20464899142E+02 0.17854115048E+02 0.15056657621E+02
 0.13235481785E+02 0.13235531077E+02 0.15056637633E+02 0.17853838493E+02 0.20464589225E+02
 0.22068899465E+02 0.22537626844E+02 0.22302879228E+02 0.21784569808E+02 0.21099734051E+02
 0.20219887414E+02 0.19044259180E+02 0.17564361300E+02 0.16099274919E+02 0.15169468324E+02
 0.15169784617E+02 0.16099734374E+02 0.17564214910E+02 0.19043571876E+02 0.20219376721E+02
 0.21099710239E+02 0.21784596798E+02 0.22537182744E+02 0.22640910999E+02 0.21286629005E+02
 0.18305237543E+02 0.14427402350E+02 0.11106087801E+02 0.97958999307E+01 0.11106698640E+02
 0.14427789430E+02 0.18304898092E+02 0.21286075042E+02 0.22640910321E+02 0.22537672379E+02
 0.21687305398E+02 0.20615285917E+02 0.19459812163E+02 0.18234541594E+02 0.16951411941E+02
 0.15703994597E+02 0.14747923349E+02 0.14384911490E+02 0.14748333644E+02 0.15704146376E+02
 0.16951051711E+02 0.18234218967E+02 0.19459955896E+02 0.20615500662E+02 0.21687043284E+02
 0.22068826174E+02 0.21286629005E+02 0.18435112565E+02 0.13921557361E+02 0.91933866189E+01
 0.61552822428E+01 0.61556958643E+01 0.91940070895E+01 0.13921416288E+02 0.18434265488E+02
 0.21286036303E+02 0.22069004803E+02 0.21323878210E+02 0.19970470252E+02 0.18512208384E+02
 0.17083345646E+02 0.15728195894E+02 0.14503433894E+02 0.13533727029E+02 0.12985231777E+02
 0.12985293400E+02 0.13533739504E+02 0.14503229687E+02 0.15728034211E+02 0.17083583730E+02
 0.18512650789E+02 0.19970525484E+02 0.21323463570E+02 0.20464899142E+02 0.18305237543E+02
 0.13921557361E+02 0.84294711639E+01 0.38192312317E+01 0.20167147892E+01 0.38195171073E+01
 0.84294617794E+01 0.13920913059E+02 0.18304367920E+02 0.20464464618E+02 0.20454835563E+02
 0.19144523955E+02 0.17487464406E+02 0.15852815842E+02 0.14359897567E+02 0.13064333714E+02
 0.12027747040E+02 0.11342195034E+02 0.11100381397E+02 0.11342016680E+02 0.12027467796E+02
 0.13064178974E+02 0.14360075858E+02 0.15853202891E+02 0.17487657881E+02 0.19144368288E+02
 0.20454728174E+02 0.17854115048E+02 0.14427402350E+02 0.91933866189E+01 0.38192312317E+01
 0.40316924219E+00 0.40327067547E+00 0.38193786856E+01 0.91932594672E+01 0.14426849158E+02
 0.17853359432E+02 0.18901419841E+02 0.18072330612E+02 0.16407075995E+02 0.14650018928E+02
 0.13027912111E+02 0.11636394626E+02 0.10523487757E+02 0.97340926253E+01 0.93201546270E+01
 0.93200234123E+01 0.97338574477E+01 0.10523427877E+02 0.11636560919E+02 0.13028061564E+02
 0.14649933982E+02 0.16406882236E+02 0.18072399081E+02 0.18901945477E+02 0.15056657621E+02
 0.11106087801E+02 0.61552822428E+01 0.20167147892E+01 0.40327067547E+00 0.20168457935E+01
 0.61553259161E+01 0.11105875115E+02 0.15056236676E+02 0.16939238476E+02 0.16752951373E+02
 0.15296577072E+02 0.13519915503E+02 0.11822063200E+02 0.10345757015E+02 0.91552049087E+01
 0.82791707512E+01 0.77394475669E+01 0.75564796111E+01 0.77394239489E+01 0.82792283818E+01
 0.91553162108E+01 0.10345737861E+02 0.11821844029E+02 0.13519678310E+02 0.15296558547E+02
 0.16753218298E+02 0.16939679951E+02 0.13235481785E+02 0.97958999307E+01 0.61556958643E+01
 0.38195171073E+01 0.38193786856E+01 0.61553259161E+01 0.97954621883E+01 0.13235212563E+02
 0.15259297274E+02 0.15458135624E+02 0.14257083244E+02 0.12515323651E+02 0.10788668535E+02
 0.92546390291E+01 0.79978101865E+01 0.70484805174E+01 0.64133340830E+01 0.60946351547E+01
 0.60947546588E+01 0.64135461919E+01 0.70485191327E+01 0.79976033504E+01 0.92543814851E+01
 0.10788562335E+02 0.12515331018E+02 0.14257029669E+02 0.15458007780E+02 0.15259294879E+02
 0.13235531077E+02 0.11106698640E+02 0.91940070895E+01 0.84294617794E+01 0.91932594672E+01
 0.11105875115E+02 0.13235212563E+02 0.14594585077E+02 0.14638263783E+02 0.13479251411E+02
 0.11734391402E+02 0.99759436686E+01 0.83950253215E+01 0.70820057885E+01 0.60706471750E+01
 0.53609701680E+01 0.49415001456E+01 0.48027823987E+01 0.49415650553E+01 0.53610462222E+01
 0.60706603725E+01 0.70819127862E+01 0.83948620991E+01 0.99758100817E+01 0.11734327224E+02
 0.13479150010E+02 0.14638037145E+02 0.14594436456E+02 0.15056637633E+02 0.14427789430E+02
 0.13921416288E+02 0.13920913059E+02 0.14426849158E+02 0.15056236676E+02 0.15259297274E+02
 0.14638263783E+02 0.13186390776E+02 0.11299504710E+02 0.94468494841E+01 0.77952185627E+01
 0.64194430446E+01 0.53477424862E+01 0.45743083707E+01 0.40774185674E+01 0.38351883529E+01
 0.38350846584E+01 0.40773344897E+01 0.45745208141E+01 0.53480552976E+01 0.64194594947E+01
 0.77949905234E+01 0.94468115027E+01 0.11299743511E+02 0.13186445445E+02 0.14637873309E+02
 0.15258968322E+02 0.17853838493E+02 0.18304898092E+02 0.18434265488E+02 0.18304367920E+02
 0.17853359432E+02 0.16939238476E+02 0.15458135624E+02 0.13479251411E+02 0.11299504710E+02
 0.92616874613E+01 0.74843126135E+01 0.60170539033E+01 0.48725387275E+01 0.40340311377E+01
 0.34698080585E+01 0.31470976132E+01 0.30423171297E+01 0.31470679875E+01 0.34699055252E+01
 0.40342439148E+01 0.48726706196E+01 0.60170890439E+01 0.74844845831E+01 0.92620501408E+01
 0.11299714252E+02 0.13479016874E+02 0.15457709883E+02 0.16939183135E+02 0.20464589225E+02
 0.21286075042E+02 0.21286036303E+02 0.20464464618E+02 0.18901419841E+02 0.16752951373E+02
 0.14257083244E+02 0.11734391402E+02 0.94468494841E+01 0.74843126135E+01 0.58815772384E+01
 0.46367234750E+01 0.37197519145E+01 0.30865576458E+01 0.26931721343E+01 0.25056613939E+01
 0.25056977153E+01 0.26932150079E+01 0.30865196755E+01 0.37196853971E+01 0.46367699169E+01
 0.58817685883E+01 0.74845115346E+01 0.94469255632E+01 0.11734382885E+02 0.14257129863E+02
 0.16753108674E+02 0.18901607803E+02 0.22068899465E+02 0.22640910321E+02 0.22069004803E+02
 0.20454835563E+02 0.18072330612E+02 0.15296577072E+02 0.12515323651E+02 0.99759436686E+01
 0.77952185627E+01 0.60170539033E+01 0.46367234750E+01 0.36165713441E+01 0.29018278135E+01
 0.24367479429E+01 0.21764599365E+01 0.20928330595E+01 0.21763828623E+01 0.24366254030E+01
 0.29017205672E+01 0.36165093802E+01 0.46366553948E+01 0.60169259045E+01 0.77951041257E+01
 0.99760047501E+01 0.12515607559E+02 0.15296915742E+02 0.18072503689E+02 0.20454793815E+02
 0.22537626844E+02 0.22537672379E+02 0.21323878210E+02 0.19144523955E+02 0.16407075995E+02
 0.13519915503E+02 0.10788668535E+02 0.83950253215E+01 0.64194430446E+01 0.48725387275E+01
 0.37197519145E+01 0.29018278135E+01 0.23539083619E+01 0.20204585015E+01 0.18631885189E+01
 0.18631264126E+01 0.20203213479E+01 0.23537804788E+01 0.29017325927E+01 0.37196580555E+01
 0.48724414401E+01 0.64193887478E+01 0.83950467988E+01 0.10788729952E+02 0.13519942882E+02
 0.16407023984E+02 0.19144410643E+02 0.21323767297E+02 0.22302879228E+02 0.21687305398E+02
 0.19970470252E+02 0.17487464406E+02 0.14650018928E+02 0.11822063200E+02 0.92546390291E+01
 0.70820057885E+01 0.53477424862E+01 0.40340311377E+01 0.30865576458E+01 0.24367479429E+01
 0.20204585015E+01 0.17895555998E+01 0.17156597602E+01 0.17895314157E+01 0.20203596679E+01
 0.24366042023E+01 0.30865023774E+01 0.40341374339E+01 0.53479009105E+01 0.70820363291E+01
 0.92544953187E+01 0.11821854593E+02 0.14649848644E+02 0.17487326523E+02 0.19970327810E+02
 0.21687196590E+02 0.21784569808E+02 0.20615285917E+02 0.18512208384E+02 0.15852815842E+02
 0.13027912111E+02 0.10345757015E+02 0.79978101865E+01 0.60706471750E+01 0.45743083707E+01
 0.34698080585E+01 0.26931721343E+01 0.21764599365E+01 0.18631885189E+01 0.17156597602E+01
 0.17156939704E+01 0.18632522263E+01 0.21764922031E+01 0.26931686631E+01 0.34698027296E+01
 0.45743031709E+01 0.60706126735E+01 0.79977513183E+01 0.10345726951E+02 0.13027943088E+02
 0.15852872834E+02 0.18512233570E+02 0.20615270561E+02 0.21784555694E+02 0.21099734051E+02
 0.19459812163E+02 0.17083345646E+02 0.14359897567E+02 0.11636394626E+02 0.91552049087E+01
 0.70484805174E+01 0.53609701680E+01 0.40774185674E+01 0.31470976132E+01 0.25056613939E+01
 0.20928330595E+01 0.18631264126E+01 0.17895314157E+01 0.18632522263E+01 0.20930588893E+01
 0.25058584843E+01 0.31470976639E+01 0.40772152020E+01 0.53607680578E+01 0.70484802760E+01
 0.91553975245E+01 0.11636627394E+02 0.14360079504E+02 0.17083506556E+02 0.19459984390E+02
 0.21099861699E+02 0.21687230127E+02 0.20219887414E+02 0.18234541594E+02 0.15728195894E+02
 0.13064333714E+02 0.10523487757E+02 0.82791707512E+01 0.64133340830E+01 0.49415001456E+01
 0.38351883529E+01 0.30423171297E+01 0.25056977153E+01 0.21763828623E+01 0.20203213479E+01
 0.20203596679E+01 0.21764922031E+01 0.25058584843E+01 0.30424878132E+01 0.38353103535E+01
 0.49415360482E+01 0.64133148414E+01 0.82791839513E+01 0.10523596602E+02 0.13064512538E+02
 0.15728359546E+02 0.18234630838E+02 0.20219909918E+02 0.21323903871E+02 0.21323904216E+02
 0.19044259180E+02 0.16951411941E+02 0.14503433894E+02 0.12027747040E+02 0.97340926253E+01
 0.77394475669E+01 0.60946351547E+01 0.48027823987E+01 0.38350846584E+01 0.31470679875E+01
 0.26932150079E+01 0.24366254030E+01 0.23537804788E+01 0.24366042023E+01 0.26931686631E+01
 0.31470976639E+01 0.38353103535E+01 0.48031073081E+01 0.60947815590E+01 0.77393095604E+01
 0.97339032905E+01 0.12027777214E+02 0.14503641629E+02 0.16951521461E+02 0.19044136959E+02
 0.20454798690E+02 0.20953059494E+02 0.20454980233E+02 0.17564361300E+02 0.15703994597E+02
 0.13533727029E+02 0.11342195034E+02 0.93201546270E+01 0.75564796111E+01 0.60947546588E+01
 0.49415650553E+01 0.40773344897E+01 0.34699055252E+01 0.30865196755E+01 0.29017205672E+01
 0.29017325927E+01 0.30865023774E+01 0.34698027296E+01 0.40772152020E+01 0.49415360482E+01
 0.60947815590E+01 0.75564256191E+01 0.93200118788E+01 0.11342147454E+02 0.13533904272E+02
 0.15704257465E+02 0.17564460566E+02 0.18901551765E+02 0.19595689356E+02 0.19595768155E+02
 0.18901648008E+02 0.16099274919E+02 0.14747923349E+02 0.12985231777E+02 0.11100381397E+02
 0.93200234123E+01 0.77394239489E+01 0.64135461919E+01 0.53610462222E+01 0.45745208141E+01
 0.40342439148E+01 0.37196853971E+01 0.36165093802E+01 0.37196580555E+01 0.40341374339E+01
 0.45743031709E+01 0.53607680578E+01 0.64133148414E+01 0.77393095604E+01 0.93200118788E+01
 0.11100429923E+02 0.12985344167E+02 0.14748134136E+02 0.16099571760E+02 0.16939287763E+02
 0.17347283165E+02 0.17461733556E+02 0.17347101901E+02 0.16938993357E+02 0.15169468324E+02
 0.14384911490E+02 0.12985293400E+02 0.11342016680E+02 0.97338574477E+01 0.82792283818E+01
 0.70485191327E+01 0.60706603725E+01 0.53480552976E+01 0.48726706196E+01 0.46367699169E+01
 0.46366553948E+01 0.48724414401E+01 0.53479009105E+01 0.60706126735E+01 0.70484802760E+01
 0.82791839513E+01 0.97339032905E+01 0.11342147454E+02 0.12985344167E+02 0.14384843453E+02
 0.15169567082E+02 0.15259261276E+02 0.14920089696E+02 0.14588610177E+02 0.14588233652E+02
 0.14919311014E+02 0.15258712945E+02 0.15169784617E+02 0.14748333644E+02 0.13533739504E+02
 0.12027467796E+02 0.10523427877E+02 0.91553162108E+01 0.79976033504E+01 0.70819127862E+01
 0.64194594947E+01 0.60170890439E+01 0.58817685883E+01 0.60169259045E+01 0.64193887478E+01
 0.70820363291E+01 0.79977513183E+01 0.91553975245E+01 0.10523596602E+02 0.12027777214E+02
 0.13533904272E+02 0.14748134136E+02 0.15169567082E+02 0.14594688263E+02 0.13334652884E+02
 0.12092661558E+02 0.11579141124E+02 0.12091664432E+02 0.13333552868E+02 0.14594284089E+02
 0.16099734374E+02 0.15704146376E+02 0.14503229687E+02 0.13064178974E+02 0.11636560919E+02
 0.10345737861E+02 0.92543814851E+01 0.83948620991E+01 0.77949905234E+01 0.74844845831E+01
 0.74845115346E+01 0.77951041257E+01 0.83950467988E+01 0.92544953187E+01 0.10345726951E+02
 0.11636627394E+02 0.13064512538E+02 0.14503641629E+02 0.15704257465E+02 0.16099571760E+02
 0.15259261276E+02 0.13334652884E+02 0.11102377371E+02 0.96129223343E+01 0.96123665195E+01
 0.11101207267E+02 0.13333807821E+02 0.15259132657E+02 0.17564214910E+02 0.16951051711E+02
 0.15728034211E+02 0.14360075858E+02 0.13028061564E+02 0.11821844029E+02 0.10788562335E+02
 0.99758100817E+01 0.94468115027E+01 0.92620501408E+01 0.94469255632E+01 0.99760047501E+01
 0.10788729952E+02 0.11821854593E+02 0.13027943088E+02 0.14360079504E+02 0.15728359546E+02
 0.16951521461E+02 0.17564460566E+02 0.16939287763E+02 0.14920089696E+02 0.12092661558E+02
 0.96129223343E+01 0.86266066650E+01 0.96121200424E+01 0.12091825399E+02 0.14919770592E+02
 0.16939249489E+02 0.19043571876E+02 0.18234218967E+02 0.17083583730E+02 0.15853202891E+02
 0.14649933982E+02 0.13519678310E+02 0.12515331018E+02 0.11734327224E+02 0.11299743511E+02
 0.11299714252E+02 0.11734382885E+02 0.12515607559E+02 0.13519942882E+02 0.14649848644E+02
 0.15852872834E+02 0.17083506556E+02 0.18234630838E+02 0.19044136959E+02 0.18901551765E+02
 0.17347283165E+02 0.14588610177E+02 0.11579141124E+02 0.96123665195E+01 0.96121200424E+01
 0.11578670423E+02 0.14588330622E+02 0.17347172696E+02 0.18901248820E+02 0.20219376721E+02
 0.19459955896E+02 0.18512650789E+02 0.17487657881E+02 0.16406882236E+02 0.15296558547E+02
 0.14257029669E+02 0.13479150010E+02 0.13186445445E+02 0.13479016874E+02 0.14257129863E+02
 0.15296915742E+02 0.16407023984E+02 0.17487326523E+02 0.18512233570E+02 0.19459984390E+02
 0.20219909918E+02 0.20454798690E+02 0.19595689356E+02 0.17461733556E+02 0.14588233652E+02
 0.12091664432E+02 0.11101207267E+02 0.12091825399E+02 0.14588330622E+02 0.17461551582E+02
 0.19595180726E+02 0.20454107421E+02 0.21099710239E+02 0.20615500662E+02 0.19970525484E+02
 0.19144368288E+02 0.18072399081E+02 0.16753218298E+02 0.15458007780E+02 0.14638037145E+02
 0.14637873309E+02 0.15457709883E+02 0.16753108674E+02 0.18072503689E+02 0.19144410643E+02
 0.19970327810E+02 0.20615270561E+02 0.21099861699E+02 0.21323903871E+02 0.20953059494E+02
 0.19595768155E+02 0.17347101901E+02 0.14919311014E+02 0.13333552868E+02 0.13333807821E+02
 0.14919770592E+02 0.17347172696E+02 0.19595180726E+02 0.20952125554E+02 0.21323201824E+02
 0.21784596798E+02 0.21687043284E+02 0.21323463570E+02 0.20454728174E+02 0.18901945477E+02
 0.16939679951E+02 0.15259294879E+02 0.14594436456E+02 0.15258968322E+02 0.16939183135E+02
 0.18901607803E+02 0.20454793815E+02 0.21323767297E+02 0.21687196590E+02 0.21784555694E+02
 0.21687230127E+02 0.21323904216E+02 0.20454980233E+02 0.18901648008E+02 0.16938993357E+02
 0.15258712945E+02 0.14594284089E+02 0.15259132657E+02 0.16939249489E+02 0.18901248820E+02
 0.20454107421E+02 0.21323201824E+02 0.21687043284E+02 0.21926380133E+02 0.22068610583E+02
 0.20850556866E+02 0.18100731902E+02 0.14497075581E+02 0.11400564164E+02 0.10176995888E+02
 0.11400150882E+02 0.14496962177E+02 0.18101361468E+02 0.20851531346E+02 0.22069284454E+02
 0.21926675687E+02 0.21099793885E+02 0.20061356706E+02 0.18940403915E+02 0.17753065930E+02
 0.16516782376E+02 0.15326727059E+02 0.14419407781E+02 0.14075282562E+02 0.14419166605E+02
 0.15326640886E+02 0.16517003311E+02 0.17753237981E+02 0.18940197419E+02 0.20060941733E+02
 0.21099494647E+02 0.22068610583E+02 0.21285668227E+02 0.18433956020E+02 0.13921108243E+02
 0.91937434091E+01 0.61556772727E+01 0.61555984422E+01 0.91937720420E+01 0.13921619608E+02
 0.18434840451E+02 0.21286458569E+02 0.22069061521E+02 0.21323808689E+02 0.19970457034E+02
 0.18512168787E+02 0.17083261084E+02 0.15728263292E+02 0.14503731870E+02 0.13534006058E+02
 0.12985258813E+02 0.12985241344E+02 0.13533968531E+02 0.14503712710E+02 0.15728275052E+02
 0.17083243863E+02 0.18512058983E+02 0.19970280404E+02 0.21323572654E+02 0.20850556866E+02
 0.18433956020E+02 0.13665494634E+02 0.77434268930E+01 0.27896331622E+01 0.85499638956E+00