       N       E                     dE             d eps       ncg     rms          rms(c)
DAV:   1    -0.304437233885E+01   -0.30444E+01   -0.21094E+03   912   0.431E+02
DAV:   2    -0.120621744099E+02   -0.90178E+01   -0.87473E+01  1392   0.575E+01
DAV:   3    -0.121577931242E+02   -0.95619E-01   -0.95619E-01  1120   0.724E+00
DAV:   4    -0.121581630099E+02   -0.36989E-03   -0.36989E-03  1472   0.401E-01
DAV:   5    -0.121581630942E+02   -0.84367E-07   -0.84071E-07  1144   0.643E-03    0.323E+00
DAV:   6    -0.119408325921E+02    0.21733E+00   -0.15583E-01  1024   0.199E+00    0.184E+00
DAV:   7    -0.118465868522E+02    0.94246E-01   -0.24818E-01  1080   0.256E+00    0.178E-01
DAV:   8    -0.118466921165E+02   -0.10526E-03   -0.60877E-03  1016   0.581E-01    0.314E-02
DAV:   9    -0.118466459093E+02    0.46207E-04   -0.19254E-04  1248   0.857E-02
   1 F= -.11846646E+02 E0= -.11846639E+02  d E =-.146905E-04
