LAMMPS data file via write_data, version 17 Nov 2016, timestep = 53

1 atoms
1 atom types

7.0686969118181439e-02 2.7577401556280057e+00 xlo xhi
7.0686969118181439e-02 2.7577401556280057e+00 ylo yhi
7.0686969118181439e-02 2.7577401556280057e+00 zlo zhi

Masses

1 26.982

Atoms # atomic

1 1 7.0686969118181439e-02 7.0686969118181439e-02 7.0686969118181439e-02 0 0 0

Velocities

1 0.0000000000000000e+00 0.0000000000000000e+00 0.0000000000000000e+00
