LAMMPS (17 Nov 2016)
# Affiliation: Dept. Materials Science and Engineering
# University of Arizona
# Abduljabar Alsayoud


# Units energy:eV time:ps distance:angstrom flux:energy*velocity
#---------Sim variables---------------
variable fileprefix string  npt300
variable temp_s equal '300.0'
variable press_s equal '1.0'

#-----------Setup----------------------
units metal            #Energy = eV , Distance= Angstroms
dimension 3
boundary p p p         #Periodic boundary conditions
atom_style atomic

# Read config files

read_data Al10X10X10.data
  orthogonal box = (-16.2239 -16.2239 -16.2239) to (24.2737 24.2737 24.2737)
  2 by 2 by 7 MPI processor grid
  reading atoms ...
  4000 atoms
  reading velocities ...
  4000 velocities

pair_style eam/alloy
pair_coeff * *  AlCu.eam.alloy Al
Reading potential file AlCu.eam.alloy with DATE: 2008-10-01
neighbor 2.0 bin
neigh_modify delay 10 check yes


#--------- NPT-------
reset_timestep 0
timestep 0.001

thermo 1000
thermo_style custom step pe ke etotal enthalpy temp vol press
velocity all create ${temp_s} 1518772
velocity all create 300 1518772
fix 1 all npt temp ${temp_s} ${temp_s} 0.5 iso ${press_s} ${press_s} 5
fix 1 all npt temp 300 ${temp_s} 0.5 iso ${press_s} ${press_s} 5
fix 1 all npt temp 300 300 0.5 iso ${press_s} ${press_s} 5
fix 1 all npt temp 300 300 0.5 iso 1 ${press_s} 5
fix 1 all npt temp 300 300 0.5 iso 1 1 5
dump 2 all atom 2000 dump.npt${fileprefix}
dump 2 all atom 2000 dump.nptnpt300
run 60000
Neighbor list info ...
  1 neighbor list requests
  update every 1 steps, delay 10 steps, check yes
  max neighbors/atom: 2000, page size: 100000
  master list distance cutoff = 8.6825
  ghost atom cutoff = 8.6825
  binsize = 4.34125 -> bins = 10 10 10
Memory usage per processor = 3.68573 Mbytes
Step PotEng KinEng TotEng Enthalpy Temp Volume Press 
       0   -13202.856     155.0734   -13047.783   -13110.489          300    66418.488   -1512.6225 
    1000   -13079.974     137.1008   -12942.873   -13025.495    265.23079    68549.279   -1931.0915 
    2000   -13114.532    155.65459   -12958.878   -13076.495    301.12435    68379.936   -2755.8343 
    3000   -13113.175    155.83234   -12957.343   -13040.352    301.46824    68325.683   -1946.4941 
    4000   -13110.283    160.25013   -12950.033   -13009.246    310.01475    68316.381   -1388.6692 
    5000   -13099.066    144.15639    -12954.91   -12945.194    278.88031     68224.52      228.173 
    6000   -13108.032    150.97178    -12957.06   -12959.305    292.06515    68183.844   -52.754648 
    7000   -13116.333    164.69416   -12951.638   -12984.149    318.61203    68210.113   -763.64269 
    8000   -13106.461    153.04735   -12953.413   -12941.121    296.08047    68181.526     288.8465 
    9000   -13103.583    146.50603   -12957.077   -12929.487    283.42585    68155.367     648.5637 
   10000   -13114.409    162.43642   -12951.973   -12971.474    314.24427    68195.568   -458.15383 
   11000   -13112.447    159.14985   -12953.297    -12964.23    307.88618     68188.04   -256.89684 
   12000   -13108.372    150.56056   -12957.812   -12946.153    291.26961    68158.521    274.06058 
   13000   -13108.662    155.85639   -12952.806   -12950.025    301.51476    68193.374    65.334151 
   14000   -13110.916    157.59967   -12953.316   -12959.586    304.88724    68196.333   -147.31647 
   15000   -13109.675    155.43292   -12954.242   -12952.848    300.69552    68187.691    32.766158 
   16000   -13104.331     150.8679   -12953.463   -12935.357    291.86418    68192.552     425.4054 
   17000   -13107.417    158.02067   -12949.396   -12955.359     305.7017    68224.228   -140.01533 
   18000   -13113.339    157.60072   -12955.738   -12966.316    304.88929    68183.595    -248.5523 
   19000   -13108.665     153.4693   -12955.195   -12952.752    296.89678     68190.91    57.409028 
   20000    -13106.24    159.81315   -12946.426   -12958.676    309.16937    68254.084     -287.532 
   21000   -13108.502     158.9701   -12949.532   -12956.234    307.53843    68222.599   -157.40255 
   22000   -13108.856     152.8681   -12955.988   -12950.567    295.73371    68176.288    127.37976 
   23000   -13108.503    153.85849   -12954.645   -12946.638    297.64968    68179.709    188.13942 
   24000   -13108.944    158.74807   -12950.196    -12954.24    307.10891    68214.411    -94.97499 
   25000    -13108.13    154.36828   -12953.762   -12947.626    298.63591    68191.237    144.16926 
   26000   -13108.543     153.6867   -12954.857   -12949.282    297.31735    68186.938    130.97858 
   27000   -13108.267    157.78603   -12950.481   -12956.978    305.24778    68225.128   -152.57787 
   28000   -13108.937    155.41291   -12953.524   -12963.847     300.6568    68220.674   -242.41729 
   29000   -13109.034    152.82452   -12956.209   -12965.126     295.6494    68218.251   -209.42715 
   30000   -13109.563    157.01153   -12952.551   -12977.974    303.74946    68252.136   -596.77865 
   31000   -13110.688    158.36244   -12952.326   -12982.588    306.36288     68253.24   -710.39092 
   32000   -13110.135    153.45652   -12956.678   -12972.381    296.87205    68216.716   -368.80192 
   33000   -13105.884    152.46088   -12953.423   -12950.079    294.94591    68215.252    78.548114 
   34000   -13107.517    156.80953   -12950.707   -12944.718    303.35867    68197.609    140.70961 
   35000   -13110.344    152.92953   -12957.414   -12920.538    295.85254    68102.736    867.54512 
   36000   -13107.799    154.97324   -12952.826   -12897.616    299.80624    68083.974    1299.2208 
   37000   -13110.399    159.39087   -12951.008   -12892.973    308.35245    68061.663    1366.1403 
   38000   -13113.099    155.52464   -12957.574   -12888.497    300.87296    68002.149    1627.4979 
   39000   -13110.353    158.91968   -12951.433   -12895.072    307.44089    68070.225    1326.5869 
   40000   -13106.288    153.69945   -12952.589   -12904.998    297.34201    68123.414    1119.2653 
   41000   -13111.003    153.56959   -12957.434   -12946.945    297.09079    68154.908    246.55977 
   42000   -13107.871    159.28594   -12948.585   -12982.781    308.14946     68288.49   -802.30173 
   43000   -13111.032    156.98735   -12954.045   -13000.638    303.70268    68280.239   -1093.2901 
   44000   -13109.724    153.82052   -12955.903   -12999.571    297.57622     68283.64    -1024.608 
   45000   -13105.392    156.78103   -12948.611    -12992.79    303.30354    68337.305   -1035.7823 
   46000   -13105.998    152.24096   -12953.757   -12975.544    294.52046    68270.079   -511.30081 
   47000   -13109.765    155.04215   -12954.723   -12974.646    299.93955    68236.128   -467.79751 
   48000   -13107.998    157.23333   -12950.764    -12960.43    304.17854    68232.768   -226.95663 
   49000   -13109.912    158.38298   -12951.529   -12960.579    306.40262    68212.344   -212.56293 
   50000   -13110.465    154.63959   -12955.825   -12949.633    299.16077     68171.47    145.53496 
   51000   -13109.291    158.79032   -12950.501   -12944.958    307.19065    68189.967    130.24202 
   52000   -13107.174    158.46665   -12948.708    -12936.74    306.56448    68199.439    281.14032 
   53000   -13111.504    155.02765   -12956.477   -12944.664     299.9115    68144.845    277.73678 
   54000   -13109.102    155.96873   -12953.134   -12940.244    301.73209    68166.949    302.94713 
   55000   -13106.251    155.44581   -12950.805   -12932.527    300.72047    68184.124    429.49592 
   56000   -13107.719    151.40058   -12956.319   -12930.973     292.8947    68153.991    595.84165 
   57000   -13108.457    155.12394   -12953.333   -12942.654    300.09778    68180.516    250.94744 
   58000   -13107.503    156.34433   -12951.159   -12954.051     302.4587    68219.091   -67.917913 
   59000   -13111.629    153.55153   -12958.077   -12962.842    297.05585    68183.473   -111.95467 
   60000    -13108.43    155.56251   -12952.867   -12963.417    300.94622    68230.717    -247.7296 
Loop time of 6131.91 on 28 procs for 60000 steps with 4000 atoms

Performance: 0.845 ns/day, 28.388 hours/ns, 9.785 timesteps/s
96.3% CPU use with 28 MPI tasks x no OpenMP threads

MPI task timing breakdown:
Section |  min time  |  avg time  |  max time  |%varavg| %total
---------------------------------------------------------------
Pair    | 1132.7     | 1332.3     | 1628.4     | 226.9 | 21.73
Neigh   | 0.042795   | 0.048117   | 0.053835   |   1.6 |  0.00
Comm    | 1073.6     | 1574.1     | 1865.5     | 342.7 | 25.67
Output  | 4.2735     | 4.3395     | 4.3834     |   0.8 |  0.07
Modify  | 2410.9     | 2582.9     | 2783.4     | 162.3 | 42.12
Other   |            | 638.3      |            |       | 10.41

Nlocal:    142.857 ave 157 max 114 min
Histogram: 1 1 2 3 0 1 3 5 7 5
Nghost:    1908.07 ave 2044 max 1828 min
Histogram: 12 0 5 3 0 0 0 0 1 7
Neighs:    11367.6 ave 13231 max 9056 min
Histogram: 1 2 2 3 1 8 1 5 4 1

Total # of neighbors = 318293
Ave neighs/atom = 79.5733
Neighbor list builds = 111
Dangerous builds = 0
unfix 1
undump 2

######################################
# SIMULATION DONE
print "All done"
All done
Total wall time: 1:42:13
