fcc Si                                  
   4.40000000000000     
     0.445088    0.445088    0.000000
     0.000000    0.445088    0.445088
     0.445088    0.000000    0.445088
   Si
     1
Direct
  0.000000  0.000000  0.000000
 
   20   20   20
 -.26329223166E+01 -.17863964207E+01 0.38343719095E+00 0.29716178752E+01 0.50198398257E+01
 0.59778532465E+01 0.58872420999E+01 0.52315363978E+01 0.45670425547E+01 0.41240267688E+01
 0.39699613645E+01 0.41240267688E+01 0.45670425547E+01 0.52315363978E+01 0.58872420999E+01
 0.59778532465E+01 0.50198398257E+01 0.29716178752E+01 0.38343719095E+00 -.17863964207E+01
 -.17863964207E+01 -.28136445221E+00 0.20720697298E+01 0.43229918845E+01 0.57166993520E+01
 0.60225403974E+01 0.55387873572E+01 0.48255623439E+01 0.42655488703E+01 0.39660887922E+01
 0.39662294537E+01 0.42657902612E+01 0.48255840143E+01 0.55385680317E+01 0.60224630185E+01
 0.57170154307E+01 0.43233028349E+01 0.20717485888E+01 -.28220930608E+00 -.17868623742E+01
 0.38343719095E+00 0.20720697298E+01 0.40339440405E+01 0.54903691775E+01 0.60226402392E+01
 0.57163226955E+01 0.50173473820E+01 0.43774539571E+01 0.39567676997E+01 0.38113003603E+01
 0.39567291111E+01 0.43774248944E+01 0.50173646881E+01 0.57163569843E+01 0.60226296005E+01
 0.54903189486E+01 0.40339453404E+01 0.20721755955E+01 0.38355724058E+00 -.28220930608E+00
 0.29716178752E+01 0.43229918845E+01 0.54903691775E+01 0.60049149840E+01 0.57885766099E+01
 0.51323191138E+01 0.44523696080E+01 0.39457277730E+01 0.36793471307E+01 0.36792278106E+01
 0.39455259297E+01 0.44523447373E+01 0.51324643044E+01 0.57885914056E+01 0.60046661714E+01
 0.54902295875E+01 0.43234246895E+01 0.29724412065E+01 0.20721755955E+01 0.20717485888E+01
 0.50198398257E+01 0.57166993520E+01 0.60226402392E+01 0.57885766099E+01 0.51701243887E+01
 0.44894500063E+01 0.39368937293E+01 0.35846805840E+01 0.34646204934E+01 0.35846722454E+01
 0.39368953826E+01 0.44894683909E+01 0.51701441699E+01 0.57885936472E+01 0.60226856618E+01
 0.57168117790E+01 0.50200008406E+01 0.43234246895E+01 0.40339453404E+01 0.43233028349E+01
 0.59778532465E+01 0.60225403974E+01 0.57163226955E+01 0.51323191138E+01 0.44894500063E+01
 0.39336507234E+01 0.35357532648E+01 0.33310511349E+01 0.33310913200E+01 0.35358259983E+01
 0.39337002873E+01 0.44895125199E+01 0.51324422672E+01 0.57164427532E+01 0.60225296204E+01
 0.59776857765E+01 0.57168117790E+01 0.54902295875E+01 0.54903189486E+01 0.57170154307E+01
 0.58872420999E+01 0.55387873572E+01 0.50173473820E+01 0.44523696080E+01 0.39368937293E+01
 0.35357532648E+01 0.32860527392E+01 0.32019046113E+01 0.32860793424E+01 0.35357795306E+01
 0.39369021208E+01 0.44523688867E+01 0.50173486412E+01 0.55388017741E+01 0.58872844321E+01
 0.60225296204E+01 0.60226856618E+01 0.60046661714E+01 0.60226296005E+01 0.60224630185E+01
 0.52315363978E+01 0.48255623439E+01 0.43774539571E+01 0.39457277730E+01 0.35846805840E+01
 0.33310511349E+01 0.32019046113E+01 0.32019283412E+01 0.33310799977E+01 0.35846221305E+01
 0.39455481668E+01 0.43772861700E+01 0.48255970108E+01 0.52317730469E+01 0.55388017741E+01
 0.57164427532E+01 0.57885936472E+01 0.57885914056E+01 0.57163569843E+01 0.55385680317E+01
 0.45670425547E+01 0.42655488703E+01 0.39567676997E+01 0.36793471307E+01 0.34646204934E+01
 0.33310913200E+01 0.32860793424E+01 0.33310799977E+01 0.34645970201E+01 0.36793215804E+01
 0.39567600983E+01 0.42655684448E+01 0.45670744733E+01 0.48255970108E+01 0.50173486412E+01
 0.51324422672E+01 0.51701441699E+01 0.51324643044E+01 0.50173646881E+01 0.48255840143E+01
 0.41240267688E+01 0.39660887922E+01 0.38113003603E+01 0.36792278106E+01 0.35846722454E+01
 0.35358259983E+01 0.35357795306E+01 0.35846221305E+01 0.36793215804E+01 0.38115294511E+01
 0.39662513130E+01 0.41239545443E+01 0.42655684448E+01 0.43772861700E+01 0.44523688867E+01
 0.44895125199E+01 0.44894683909E+01 0.44523447373E+01 0.43774248944E+01 0.42657902612E+01
 0.39699613645E+01 0.39662294537E+01 0.39567291111E+01 0.39455259297E+01 0.39368953826E+01
 0.39337002873E+01 0.39369021208E+01 0.39455481668E+01 0.39567600983E+01 0.39662513130E+01
 0.39699755111E+01 0.39662513130E+01 0.39567600983E+01 0.39455481668E+01 0.39369021208E+01
 0.39337002873E+01 0.39368953826E+01 0.39455259297E+01 0.39567291111E+01 0.39662294537E+01
 0.41240267688E+01 0.42657902612E+01 0.43774248944E+01 0.44523447373E+01 0.44894683909E+01
 0.44895125199E+01 0.44523688867E+01 0.43772861700E+01 0.42655684448E+01 0.41239545443E+01
 0.39662513130E+01 0.38115294511E+01 0.36793215804E+01 0.35846221305E+01 0.35357795306E+01
 0.35358259983E+01 0.35846722454E+01 0.36792278106E+01 0.38113003603E+01 0.39660887922E+01
 0.45670425547E+01 0.48255840143E+01 0.50173646881E+01 0.51324643044E+01 0.51701441699E+01
 0.51324422672E+01 0.50173486412E+01 0.48255970108E+01 0.45670744733E+01 0.42655684448E+01
 0.39567600983E+01 0.36793215804E+01 0.34645970201E+01 0.33310799977E+01 0.32860793424E+01
 0.33310913200E+01 0.34646204934E+01 0.36793471307E+01 0.39567676997E+01 0.42655488703E+01
 0.52315363978E+01 0.55385680317E+01 0.57163569843E+01 0.57885914056E+01 0.57885936472E+01
 0.57164427532E+01 0.55388017741E+01 0.52317730469E+01 0.48255970108E+01 0.43772861700E+01
 0.39455481668E+01 0.35846221305E+01 0.33310799977E+01 0.32019283412E+01 0.32019046113E+01
 0.33310511349E+01 0.35846805840E+01 0.39457277730E+01 0.43774539571E+01 0.48255623439E+01
 0.58872420999E+01 0.60224630185E+01 0.60226296005E+01 0.60046661714E+01 0.60226856618E+01
 0.60225296204E+01 0.58872844321E+01 0.55388017741E+01 0.50173486412E+01 0.44523688867E+01
 0.39369021208E+01 0.35357795306E+01 0.32860793424E+01 0.32019046113E+01 0.32860527392E+01
 0.35357532648E+01 0.39368937293E+01 0.44523696080E+01 0.50173473820E+01 0.55387873572E+01
 0.59778532465E+01 0.57170154307E+01 0.54903189486E+01 0.54902295875E+01 0.57168117790E+01
 0.59776857765E+01 0.60225296204E+01 0.57164427532E+01 0.51324422672E+01 0.44895125199E+01
 0.39337002873E+01 0.35358259983E+01 0.33310913200E+01 0.33310511349E+01 0.35357532648E+01
 0.39336507234E+01 0.44894500063E+01 0.51323191138E+01 0.57163226955E+01 0.60225403974E+01
 0.50198398257E+01 0.43233028349E+01 0.40339453404E+01 0.43234246895E+01 0.50200008406E+01
 0.57168117790E+01 0.60226856618E+01 0.57885936472E+01 0.51701441699E+01 0.44894683909E+01
 0.39368953826E+01 0.35846722454E+01 0.34646204934E+01 0.35846805840E+01 0.39368937293E+01
 0.44894500063E+01 0.51701243887E+01 0.57885766099E+01 0.60226402392E+01 0.57166993520E+01
 0.29716178752E+01 0.20717485888E+01 0.20721755955E+01 0.29724412065E+01 0.43234246895E+01
 0.54902295875E+01 0.60046661714E+01 0.57885914056E+01 0.51324643044E+01 0.44523447373E+01
 0.39455259297E+01 0.36792278106E+01 0.36793471307E+01 0.39457277730E+01 0.44523696080E+01
 0.51323191138E+01 0.57885766099E+01 0.60049149840E+01 0.54903691775E+01 0.43229918845E+01
 0.38343719095E+00 -.28220930608E+00 0.38355724058E+00 0.20721755955E+01 0.40339453404E+01
 0.54903189486E+01 0.60226296005E+01 0.57163569843E+01 0.50173646881E+01 0.43774248944E+01
 0.39567291111E+01 0.38113003603E+01 0.39567676997E+01 0.43774539571E+01 0.50173473820E+01
 0.57163226955E+01 0.60226402392E+01 0.54903691775E+01 0.40339440405E+01 0.20720697298E+01
 -.17863964207E+01 -.17868623742E+01 -.28220930608E+00 0.20717485888E+01 0.43233028349E+01
 0.57170154307E+01 0.60224630185E+01 0.55385680317E+01 0.48255840143E+01 0.42657902612E+01
 0.39662294537E+01 0.39660887922E+01 0.42655488703E+01 0.48255623439E+01 0.55387873572E+01
 0.60225403974E+01 0.57166993520E+01 0.43229918845E+01 0.20720697298E+01 -.28136445221E+00
 -.17865711561E+01 -.28133817605E+00 0.20722880503E+01 0.43232001896E+01 0.57167176506E+01
 0.60224570721E+01 0.55388007137E+01 0.48256575255E+01 0.42655632009E+01 0.39660244629E+01
 0.39662349585E+01 0.42658695418E+01 0.48255950834E+01 0.55385036582E+01 0.60224721015E+01
 0.57171240097E+01 0.43233447008E+01 0.20716068699E+01 -.28247583006E+00 -.17871356800E+01
 -.28133817605E+00 0.15626282794E+01 0.37243585325E+01 0.53671377688E+01 0.60311323695E+01
 0.57892994940E+01 0.51006187672E+01 0.44516931974E+01 0.40230640866E+01 0.38745653498E+01
 0.40230821760E+01 0.44516643010E+01 0.51005559245E+01 0.57893821525E+01 0.60314735712E+01
 0.53673981258E+01 0.37239059532E+01 0.15613734187E+01 -.28249699826E+00 -.10062485502E+01
 0.20722880503E+01 0.37243585325E+01 0.52115903176E+01 0.59789825780E+01 0.59053656191E+01
 0.52876250032E+01 0.45915203037E+01 0.40664076662E+01 0.37888645044E+01 0.37887657804E+01
 0.40662098341E+01 0.45914266833E+01 0.52877465320E+01 0.59055916824E+01 0.59790661469E+01
 0.52113744559E+01 0.37239192376E+01 0.20718694678E+01 0.98875564529E+00 0.98892434131E+00
 0.43232001896E+01 0.53671377688E+01 0.59789825780E+01 0.59357339976E+01 0.53788713731E+01
 0.46770554974E+01 0.40945471990E+01 0.37200326365E+01 0.35919178975E+01 0.37201040365E+01
 0.40945343680E+01 0.46769272385E+01 0.53787627799E+01 0.59357065138E+01 0.59789814340E+01
 0.53671798190E+01 0.43233511591E+01 0.33500578798E+01 0.29547957677E+01 0.33498883413E+01
 0.57167176506E+01 0.60311323695E+01 0.59053656191E+01 0.53788713731E+01 0.47058217022E+01
 0.41084687587E+01 0.36762365864E+01 0.34526283732E+01 0.34527238880E+01 0.36763843189E+01
 0.41084487594E+01 0.47056379786E+01 0.53787493688E+01 0.59054513933E+01 0.60313131423E+01
 0.57167917828E+01 0.51833062654E+01 0.47851708570E+01 0.47852255809E+01 0.51833713581E+01
 0.60224570721E+01 0.57892994940E+01 0.52876250032E+01 0.46770554974E+01 0.41084687587E+01
 0.36614079428E+01 0.33815036432E+01 0.32869113279E+01 0.33815098191E+01 0.36614075148E+01
 0.41084687901E+01 0.46770920757E+01 0.52877090203E+01 0.57893668967E+01 0.60224054839E+01
 0.59862117302E+01 0.58340497334E+01 0.57553953928E+01 0.58342139514E+01 0.59863880935E+01
 0.55388007137E+01 0.51006187672E+01 0.45915203037E+01 0.40945471990E+01 0.36762365864E+01
 0.33815036432E+01 0.32312007115E+01 0.32311841432E+01 0.33814832713E+01 0.36762521348E+01
 0.40945720633E+01 0.45914825627E+01 0.51005076251E+01 0.55387248283E+01 0.58161169741E+01
 0.59297329986E+01 0.59519336398E+01 0.59518455047E+01 0.59295681926E+01 0.58160482998E+01
 0.48256575255E+01 0.44516931974E+01 0.40664076662E+01 0.37200326365E+01 0.34526283732E+01
 0.32869113279E+01 0.32311841432E+01 0.32869409056E+01 0.34526742564E+01 0.37200071745E+01
 0.40662256764E+01 0.44514430639E+01 0.48255624767E+01 0.51425594632E+01 0.53684965554E+01
 0.54913974627E+01 0.55283366131E+01 0.54911638749E+01 0.53681795536E+01 0.51423879891E+01
 0.42655632009E+01 0.40230640866E+01 0.37888645044E+01 0.35919178975E+01 0.34527238880E+01
 0.33815098191E+01 0.33814832713E+01 0.34526742564E+01 0.35918923824E+01 0.37888685548E+01
 0.40230667539E+01 0.42655518614E+01 0.44860823241E+01 0.46613502719E+01 0.47793697970E+01
 0.48377237453E+01 0.48377079882E+01 0.47793367115E+01 0.46613287348E+01 0.44860856404E+01
 0.39660244629E+01 0.38745653498E+01 0.37887657804E+01 0.37201040365E+01 0.36763843189E+01
 0.36614075148E+01 0.36762521348E+01 0.37200071745E+01 0.37888685548E+01 0.38748323469E+01
 0.39662253876E+01 0.40507229208E+01 0.41190587207E+01 0.41669722732E+01 0.41944646436E+01
 0.42033098887E+01 0.41945090082E+01 0.41671232841E+01 0.41192510910E+01 0.40507593137E+01
 0.39662349585E+01 0.40230821760E+01 0.40662098341E+01 0.40945343680E+01 0.41084487594E+01
 0.41084687901E+01 0.40945720633E+01 0.40662256764E+01 0.40230667539E+01 0.39662253876E+01
 0.38997592270E+01 0.38310666717E+01 0.37694734964E+01 0.37236147794E+01 0.36993599474E+01
 0.36993777078E+01 0.37236356283E+01 0.37694512691E+01 0.38310134668E+01 0.38997273089E+01
 0.42658695418E+01 0.44516643010E+01 0.45914266833E+01 0.46769272385E+01 0.47056379786E+01
 0.46770920757E+01 0.45914825627E+01 0.44514430639E+01 0.42655518614E+01 0.40507229208E+01
 0.38310666717E+01 0.36329198838E+01 0.34784866350E+01 0.33818194170E+01 0.33491445736E+01
 0.33818716443E+01 0.34784264934E+01 0.36326976055E+01 0.38308897785E+01 0.40508246294E+01
 0.48255950834E+01 0.51005559245E+01 0.52877465320E+01 0.53787627799E+01 0.53787493688E+01
 0.52877090203E+01 0.51005076251E+01 0.48255624767E+01 0.44860823241E+01 0.41190587207E+01
 0.37694734964E+01 0.34784866350E+01 0.32741906054E+01 0.31700560097E+01 0.31700617674E+01
 0.32742073561E+01 0.34785062813E+01 0.37694814865E+01 0.41190562272E+01 0.44860889019E+01
 0.55385036582E+01 0.57893821525E+01 0.59055916824E+01 0.59357065138E+01 0.59054513933E+01
 0.57893668967E+01 0.55387248283E+01 0.51425594632E+01 0.46613502719E+01 0.41669722732E+01
 0.37236147794E+01 0.33818194170E+01 0.31700560097E+01 0.30987918563E+01 0.31699967092E+01
 0.33818254663E+01 0.37237708011E+01 0.41671637050E+01 0.46613477246E+01 0.51423247623E+01
 0.60224721015E+01 0.60314735712E+01 0.59790661469E+01 0.59789814340E+01 0.60313131423E+01
 0.60224054839E+01 0.58161169741E+01 0.53684965554E+01 0.47793697970E+01 0.41944646436E+01
 0.36993599474E+01 0.33491445736E+01 0.31700617674E+01 0.31699967092E+01 0.33490337819E+01
 0.36993372147E+01 0.41945214226E+01 0.47793814028E+01 0.53684137787E+01 0.58160472714E+01
 0.57171240097E+01 0.53673981258E+01 0.52113744559E+01 0.53671798190E+01 0.57167917828E+01
 0.59862117302E+01 0.59297329986E+01 0.54913974627E+01 0.48377237453E+01 0.42033098887E+01
 0.36993777078E+01 0.33818716443E+01 0.32742073561E+01 0.33818254663E+01 0.36993372147E+01
 0.42032464482E+01 0.48375684043E+01 0.54912219305E+01 0.59297312038E+01 0.59864536609E+01
 0.43233447008E+01 0.37239059532E+01 0.37239192376E+01 0.43233511591E+01 0.51833062654E+01
 0.58340497334E+01 0.59519336398E+01 0.55283366131E+01 0.48377079882E+01 0.41945090082E+01
 0.37236356283E+01 0.34784264934E+01 0.34785062813E+01 0.37237708011E+01 0.41945214226E+01
 0.48375684043E+01 0.55281833367E+01 0.59518920423E+01 0.58340994981E+01 0.51833477907E+01
 0.20716068699E+01 0.15613734187E+01 0.20718694678E+01 0.33500578798E+01 0.47851708570E+01
 0.57553953928E+01 0.59518455047E+01 0.54911638749E+01 0.47793367115E+01 0.41671232841E+01
 0.37694512691E+01 0.36326976055E+01 0.37694814865E+01 0.41671637050E+01 0.47793814028E+01
 0.54912219305E+01 0.59518920423E+01 0.57553423265E+01 0.47849449079E+01 0.33497162861E+01
 -.28247583006E+00 -.28249699826E+00 0.98875564529E+00 0.29547957677E+01 0.47852255809E+01
 0.58342139514E+01 0.59295681926E+01 0.53681795536E+01 0.46613287348E+01 0.41192510910E+01
 0.38310134668E+01 0.38308897785E+01 0.41190562272E+01 0.46613477246E+01 0.53684137787E+01
 0.59297312038E+01 0.58340994981E+01 0.47849449079E+01 0.29546010188E+01 0.98872933283E+00
 -.17871356800E+01 -.10062485502E+01 0.98892434131E+00 0.33498883413E+01 0.51833713581E+01
 0.59863880935E+01 0.58160482998E+01 0.51423879891E+01 0.44860856404E+01 0.40507593137E+01
 0.38997273089E+01 0.40508246294E+01 0.44860889019E+01 0.51423247623E+01 0.58160472714E+01
 0.59864536609E+01 0.51833477907E+01 0.33497162861E+01 0.98872933283E+00 -.10063504928E+01
 0.38316862150E+00 0.20719233190E+01 0.40340032983E+01 0.54905106762E+01 0.60226861207E+01
 0.57162901392E+01 0.50173725851E+01 0.43775352703E+01 0.39567890803E+01 0.38112623426E+01
 0.39567412435E+01 0.43774917777E+01 0.50173860687E+01 0.57163306405E+01 0.60226582956E+01
 0.54904130277E+01 0.40339912219E+01 0.20721006562E+01 0.38338024043E+00 -.28246056961E+00
 0.20719233190E+01 0.37241629412E+01 0.52116637201E+01 0.59791387333E+01 0.59053874332E+01
 0.52875562311E+01 0.45915320377E+01 0.40664953806E+01 0.37888922672E+01 0.37887263460E+01
 0.40662153388E+01 0.45914863156E+01 0.52877624047E+01 0.59055552239E+01 0.59790768524E+01
 0.52114699212E+01 0.37240254895E+01 0.20718960003E+01 0.98863403931E+00 0.98862580900E+00
 0.40340032983E+01 0.52116637201E+01 0.59428827567E+01 0.59767588573E+01 0.54487820413E+01
 0.47423062144E+01 0.41499089864E+01 0.37677481007E+01 0.36367315953E+01 0.37676962690E+01
 0.41498483074E+01 0.47422769598E+01 0.54487851690E+01 0.59767617589E+01 0.59428619252E+01
 0.52116248895E+01 0.40339660193E+01 0.29544601752E+01 0.25187526452E+01 0.29544794128E+01
 0.54905106762E+01 0.59791387333E+01 0.59767588573E+01 0.55009919759E+01 0.48198151302E+01
 0.42018581146E+01 0.37518270012E+01 0.35181468093E+01 0.35182257132E+01 0.37519478004E+01
 0.42018568744E+01 0.48197014704E+01 0.55008653448E+01 0.59766537130E+01 0.59790970019E+01
 0.54906290299E+01 0.47851492118E+01 0.42795738110E+01 0.42794430709E+01 0.47849074243E+01
 0.60226861207E+01 0.59053874332E+01 0.54487820413E+01 0.48198151302E+01 0.42194832215E+01
 0.37436343479E+01 0.34442444720E+01 0.33428198002E+01 0.34442660185E+01 0.37436398829E+01
 0.42194587867E+01 0.48197877098E+01 0.54487730485E+01 0.59053809010E+01 0.60226593964E+01
 0.58340997379E+01 0.55522556245E+01 0.54226638111E+01 0.55522821872E+01 0.58341378484E+01
 0.57162901392E+01 0.52875562311E+01 0.47423062144E+01 0.42018581146E+01 0.37436343479E+01
 0.34193715843E+01 0.32535863374E+01 0.32535497466E+01 0.34192908100E+01 0.37435692586E+01
 0.42018697428E+01 0.47424278715E+01 0.52877275836E+01 0.57163301990E+01 0.59295343387E+01
 0.59580039076E+01 0.59210985357E+01 0.59212925166E+01 0.59583945243E+01 0.59297731441E+01
 0.50173725851E+01 0.45915320377E+01 0.41499089864E+01 0.37518270012E+01 0.34442444720E+01
 0.32535863374E+01 0.31894688268E+01 0.32536003147E+01 0.34442481160E+01 0.37518048960E+01
 0.41498726385E+01 0.45915015539E+01 0.50173402007E+01 0.53683691879E+01 0.55929408136E+01
 0.56973585905E+01 0.57244962688E+01 0.56974185725E+01 0.55930174053E+01 0.53684244842E+01
 0.43775352703E+01 0.40664953806E+01 0.37677481007E+01 0.35181468093E+01 0.33428198002E+01
 0.32535497466E+01 0.32536003147E+01 0.33429296709E+01 0.35182023386E+01 0.37676404949E+01
 0.40662447002E+01 0.43773138265E+01 0.46613143408E+01 0.48871970794E+01 0.50388215379E+01
 0.51123741078E+01 0.51122892020E+01 0.50386241778E+01 0.48870385922E+01 0.46613429038E+01
 0.39567890803E+01 0.37888922672E+01 0.36367315953E+01 0.35182257132E+01 0.34442660185E+01
 0.34192908100E+01 0.34442481160E+01 0.35182023386E+01 0.36367059009E+01 0.37888613943E+01
 0.39567617267E+01 0.41190448146E+01 0.42567813079E+01 0.43580424524E+01 0.44185274544E+01
 0.44384656357E+01 0.44185330912E+01 0.43580412205E+01 0.42567762196E+01 0.41190538642E+01
 0.38112623426E+01 0.37887263460E+01 0.37676962690E+01 0.37519478004E+01 0.37436398829E+01
 0.37435692586E+01 0.37518048960E+01 0.37676404949E+01 0.37888613943E+01 0.38115001868E+01
 0.38310208803E+01 0.38443362059E+01 0.38510638008E+01 0.38531307689E+01 0.38532431177E+01
 0.38532728920E+01 0.38532422646E+01 0.38512305037E+01 0.38444116877E+01 0.38308920788E+01
 0.39567412435E+01 0.40662153388E+01 0.41498483074E+01 0.42018568744E+01 0.42194587867E+01
 0.42018697428E+01 0.41498726385E+01 0.40662447002E+01 0.39567617267E+01 0.38310208803E+01
 0.37021377845E+01 0.35847825151E+01 0.34921316983E+01 0.34334053969E+01 0.34133748615E+01
 0.34334021971E+01 0.34921337583E+01 0.35847943468E+01 0.37021501585E+01 0.38310189715E+01
 0.43774917777E+01 0.45914863156E+01 0.47422769598E+01 0.48197014704E+01 0.48197877098E+01
 0.47424278715E+01 0.45915015539E+01 0.43773138265E+01 0.41190448146E+01 0.38443362059E+01
 0.35847825151E+01 0.33690109737E+01 0.32171058122E+01 0.31394157502E+01 0.31394252364E+01
 0.32170815764E+01 0.33689046074E+01 0.35846854436E+01 0.38443969424E+01 0.41192584955E+01
 0.50173860687E+01 0.52877624047E+01 0.54487851690E+01 0.55008653448E+01 0.54487730485E+01
 0.52877275836E+01 0.50173402007E+01 0.46613143408E+01 0.42567813079E+01 0.38510638008E+01
 0.34921316983E+01 0.32171058122E+01 0.30470249988E+01 0.29898284553E+01 0.30470440472E+01
 0.32171316559E+01 0.34921429448E+01 0.38510550232E+01 0.42567762196E+01 0.46613382617E+01
 0.57163306405E+01 0.59055552239E+01 0.59767617589E+01 0.59766537130E+01 0.59053809010E+01
 0.57163301990E+01 0.53683691879E+01 0.48871970794E+01 0.43580424524E+01 0.38531307689E+01
 0.34334053969E+01 0.31394157502E+01 0.29898284553E+01 0.29898096006E+01 0.31394043585E+01
 0.34334701634E+01 0.38532452889E+01 0.43580673004E+01 0.48870560933E+01 0.53681947347E+01
 0.60226582956E+01 0.59790768524E+01 0.59428619252E+01 0.59790970019E+01 0.60226593964E+01
 0.59295343387E+01 0.55929408136E+01 0.50388215379E+01 0.44185274544E+01 0.38532431177E+01
 0.34133748615E+01 0.31394252364E+01 0.30470440472E+01 0.31394043585E+01 0.34133370546E+01
 0.38532098480E+01 0.44185304710E+01 0.50388753905E+01 0.55930139133E+01 0.59295799266E+01
 0.54904130277E+01 0.52114699212E+01 0.52116248895E+01 0.54906290299E+01 0.58340997379E+01
 0.59580039076E+01 0.56973585905E+01 0.51123741078E+01 0.44384656357E+01 0.38532728920E+01
 0.34334021971E+01 0.32170815764E+01 0.32171316559E+01 0.34334701634E+01 0.38532098480E+01
 0.44382780953E+01 0.51122992334E+01 0.56975873414E+01 0.59583580446E+01 0.58341958253E+01
 0.40339912219E+01 0.37240254895E+01 0.40339660193E+01 0.47851492118E+01 0.55522556245E+01
 0.59210985357E+01 0.57244962688E+01 0.51122892020E+01 0.44185330912E+01 0.38532422646E+01
 0.34921337583E+01 0.33689046074E+01 0.34921429448E+01 0.38532452889E+01 0.44185304710E+01
 0.51122992334E+01 0.57245226557E+01 0.59211284824E+01 0.55522821872E+01 0.47851794935E+01
 0.20721006562E+01 0.20718960003E+01 0.29544601752E+01 0.42795738110E+01 0.54226638111E+01
 0.59212925166E+01 0.56974185725E+01 0.50386241778E+01 0.43580412205E+01 0.38512305037E+01
 0.35847943468E+01 0.35846854436E+01 0.38510550232E+01 0.43580673004E+01 0.50388753905E+01
 0.56975873414E+01 0.59211284824E+01 0.54223662008E+01 0.42795693532E+01 0.29547837359E+01
 0.38338024043E+00 0.98863403931E+00 0.25187526452E+01 0.42794430709E+01 0.55522821872E+01
 0.59583945243E+01 0.55930174053E+01 0.48870385922E+01 0.42567762196E+01 0.38444116877E+01
 0.37021501585E+01 0.38443969424E+01 0.42567762196E+01 0.48870560933E+01 0.55930139133E+01
 0.59583580446E+01 0.55522821872E+01 0.42795693532E+01 0.25189889031E+01 0.98882904779E+00
 -.28246056961E+00 0.98862580900E+00 0.29544794128E+01 0.47849074243E+01 0.58341378484E+01
 0.59297731441E+01 0.53684244842E+01 0.46613429038E+01 0.41190538642E+01 0.38308920788E+01
 0.38310189715E+01 0.41192584955E+01 0.46613382617E+01 0.53681947347E+01 0.59295799266E+01
 0.58341958253E+01 0.47851794935E+01 0.29547837359E+01 0.98882904779E+00 -.28239341010E+00
 0.29716996922E+01 0.43229436371E+01 0.54902388633E+01 0.60048308694E+01 0.57885875072E+01
 0.51323640385E+01 0.44523859070E+01 0.39457194050E+01 0.36793441678E+01 0.36792361455E+01
 0.39455339829E+01 0.44523477570E+01 0.51324695243E+01 0.57886097842E+01 0.60046930768E+01
 0.54902324210E+01 0.43233803897E+01 0.29723944663E+01 0.20722088350E+01 0.20718634224E+01
 0.43229436371E+01 0.53669159031E+01 0.59789237793E+01 0.59357763131E+01 0.53788787744E+01
 0.46770205101E+01 0.40945533866E+01 0.37200811696E+01 0.35919351909E+01 0.37200839949E+01
 0.40945369165E+01 0.46769567476E+01 0.53787686291E+01 0.59356895599E+01 0.59789960113E+01
 0.53672443631E+01 0.43234373248E+01 0.33501335067E+01 0.29548056952E+01 0.33497562605E+01
 0.54902388633E+01 0.59789237793E+01 0.59767442536E+01 0.55010652747E+01 0.48198077485E+01
 0.42017864092E+01 0.37518090797E+01 0.35181890441E+01 0.35182421083E+01 0.37519230264E+01
 0.42018488212E+01 0.48197201365E+01 0.55008649285E+01 0.59766219155E+01 0.59790717191E+01
 0.54906544166E+01 0.47852578975E+01 0.42797474686E+01 0.42795547494E+01 0.47848086981E+01
 0.60048308694E+01 0.59357763131E+01 0.55010652747E+01 0.48685775773E+01 0.42576680700E+01
 0.37721062677E+01 0.34661421666E+01 0.33623886725E+01 0.34661372519E+01 0.37721910509E+01
 0.42578408598E+01 0.48686382337E+01 0.55008404118E+01 0.59354450534E+01 0.60048365665E+01
 0.57557060177E+01 0.54228734565E+01 0.52730921067E+01 0.54223335786E+01 0.57552079046E+01
 0.57885875072E+01 0.53788787744E+01 0.48198077485E+01 0.42576680700E+01 0.37790594125E+01
 0.34395688684E+01 0.32657298626E+01 0.32656756890E+01 0.34395100163E+01 0.37791465035E+01
 0.42578546426E+01 0.48198709739E+01 0.53787203044E+01 0.57883977486E+01 0.59518899003E+01
 0.59212766254E+01 0.58444928990E+01 0.58443611656E+01 0.59210531991E+01 0.59518610736E+01
 0.51323640385E+01 0.46770205101E+01 0.42017864092E+01 0.37721062677E+01 0.34395688684E+01
 0.32331873386E+01 0.31636831429E+01 0.32331116416E+01 0.34395169316E+01 0.37721419635E+01
 0.42018874372E+01 0.46771424868E+01 0.51324487547E+01 0.54912052978E+01 0.56973197568E+01
 0.57763440312E+01 0.57920989560E+01 0.57765311103E+01 0.56975040159E+01 0.54912425365E+01
 0.44523859070E+01 0.40945533866E+01 0.37518090797E+01 0.34661421666E+01 0.32657298626E+01
 0.31636831429E+01 0.31636745185E+01 0.32657158418E+01 0.34661439230E+01 0.37518347377E+01
 0.40945929515E+01 0.44524166553E+01 0.47793614492E+01 0.50387837191E+01 0.52076389120E+01
 0.52854442621E+01 0.52854893859E+01 0.52077353594E+01 0.50388574689E+01 0.47793741868E+01
 0.39457194050E+01 0.37200811696E+01 0.35181890441E+01 0.33623886725E+01 0.32656756890E+01
 0.32331116416E+01 0.32657158418E+01 0.33624505707E+01 0.35182229524E+01 0.37200320607E+01
 0.39455901251E+01 0.41670087511E+01 0.43580798383E+01 0.45007697275E+01 0.45870508279E+01
 0.46156422652E+01 0.45869545610E+01 0.45006807999E+01 0.43580992681E+01 0.41671318939E+01
 0.36793441678E+01 0.35919351909E+01 0.35182421083E+01 0.34661372519E+01 0.34395100163E+01
 0.34395169316E+01 0.34661439230E+01 0.35182229524E+01 0.35918893929E+01 0.36793083105E+01
 0.37694756274E+01 0.38510906432E+01 0.39157065574E+01 0.39591617022E+01 0.39806782568E+01
 0.39806898643E+01 0.39591730484E+01 0.39156859794E+01 0.38510531824E+01 0.37694674544E+01
 0.36792361455E+01 0.37200839949E+01 0.37519230264E+01 0.37721910509E+01 0.37791465035E+01
 0.37721419635E+01 0.37518347377E+01 0.37200320607E+01 0.36793083105E+01 0.36328693330E+01
 0.35847653556E+01 0.35399180077E+01 0.35034798377E+01 0.34797949111E+01 0.34716249644E+01
 0.34798798769E+01 0.35035842797E+01 0.35399341907E+01 0.35846452424E+01 0.36327030141E+01
 0.39455339829E+01 0.40945369165E+01 0.42018488212E+01 0.42578408598E+01 0.42578546426E+01
 0.42018874372E+01 0.40945929515E+01 0.39455901251E+01 0.37694756274E+01 0.35847653556E+01
 0.34113886231E+01 0.32672506317E+01 0.31653491280E+01 0.31129644901E+01 0.31129551297E+01
 0.31653430033E+01 0.32672776400E+01 0.34114352998E+01 0.35847862936E+01 0.37694487206E+01
 0.44523477570E+01 0.46769567476E+01 0.48197201365E+01 0.48686382337E+01 0.48198709739E+01
 0.46771424868E+01 0.44524166553E+01 0.41670087511E+01 0.38510906432E+01 0.35399180077E+01
 0.32672506317E+01 0.30589078411E+01 0.29299338098E+01 0.28864815777E+01 0.29299036833E+01
 0.30588504942E+01 0.32672262209E+01 0.35400020675E+01 0.38512541038E+01 0.41671084080E+01
 0.51324695243E+01 0.53787686291E+01 0.55008649285E+01 0.55008404118E+01 0.53787203044E+01
 0.51324487547E+01 0.47793614492E+01 0.43580798383E+01 0.39157065574E+01 0.35034798377E+01
 0.31653491280E+01 0.29299338098E+01 0.28103791349E+01 0.28103761404E+01 0.29299375185E+01
 0.31653693843E+01 0.35034910899E+01 0.39156777966E+01 0.43580225684E+01 0.47793276009E+01
 0.57886097842E+01 0.59356895599E+01 0.59766219155E+01 0.59354450534E+01 0.57883977486E+01
 0.54912052978E+01 0.50387837191E+01 0.45007697275E+01 0.39591617022E+01 0.34797949111E+01
 0.31129644901E+01 0.28864815777E+01 0.28103761404E+01 0.28864706265E+01 0.31130005843E+01
 0.34798706211E+01 0.39591578484E+01 0.45005990757E+01 0.50385617518E+01 0.54911641067E+01
 0.60046930768E+01 0.59789960113E+01 0.59790717191E+01 0.60048365665E+01 0.59518899003E+01
 0.56973197568E+01 0.52076389120E+01 0.45870508279E+01 0.39806782568E+01 0.34716249644E+01
 0.31129551297E+01 0.29299036833E+01 0.29299375185E+01 0.31130005843E+01 0.34716071277E+01
 0.39806278819E+01 0.45870700223E+01 0.52077427207E+01 0.56973932896E+01 0.59518319559E+01
 0.54902324210E+01 0.53672443631E+01 0.54906544166E+01 0.57557060177E+01 0.59212766254E+01
 0.57763440312E+01 0.52854442621E+01 0.46156422652E+01 0.39806898643E+01 0.34798798769E+01
 0.31653430033E+01 0.30588504942E+01 0.31653693843E+01 0.34798706211E+01 0.39806278819E+01
 0.46156477605E+01 0.52856546845E+01 0.57766492196E+01 0.59213266445E+01 0.57553452301E+01
 0.43233803897E+01 0.43234373248E+01 0.47852578975E+01 0.54228734565E+01 0.58444928990E+01
 0.57920989560E+01 0.52854893859E+01 0.45869545610E+01 0.39591730484E+01 0.35035842797E+01
 0.32672776400E+01 0.32672262209E+01 0.35034910899E+01 0.39591578484E+01 0.45870700223E+01
 0.52856546845E+01 0.57921749852E+01 0.58444163626E+01 0.54227045952E+01 0.47851082587E+01
 0.29723944663E+01 0.33501335067E+01 0.42797474686E+01 0.52730921067E+01 0.58443611656E+01
 0.57765311103E+01 0.52077353594E+01 0.45006807999E+01 0.39156859794E+01 0.35399341907E+01
 0.34114352998E+01 0.35400020675E+01 0.39156777966E+01 0.45005990757E+01 0.52077427207E+01
 0.57766492196E+01 0.58444163626E+01 0.52730003524E+01 0.42796211864E+01 0.33500743594E+01
 0.20722088350E+01 0.29548056952E+01 0.42795547494E+01 0.54223335786E+01 0.59210531991E+01
 0.56975040159E+01 0.50388574689E+01 0.43580992681E+01 0.38510531824E+01 0.35846452424E+01
 0.35847862936E+01 0.38512541038E+01 0.43580225684E+01 0.50385617518E+01 0.56973932896E+01
 0.59213266445E+01 0.54227045952E+01 0.42796211864E+01 0.29545718536E+01 0.20720545487E+01
 0.20718634224E+01 0.33497562605E+01 0.47848086981E+01 0.57552079046E+01 0.59518610736E+01
 0.54912425365E+01 0.47793741868E+01 0.41671318939E+01 0.37694674544E+01 0.36327030141E+01
 0.37694487206E+01 0.41671084080E+01 0.47793276009E+01 0.54911641067E+01 0.59518319559E+01
 0.57553452301E+01 0.47851082587E+01 0.33500743594E+01 0.20720545487E+01 0.15616873909E+01
 0.50201542766E+01 0.57168923860E+01 0.60226402392E+01 0.57885056901E+01 0.51701044668E+01
 0.44894709659E+01 0.39368937293E+01 0.35846551888E+01 0.34646027480E+01 0.35846701451E+01
 0.39368953826E+01 0.44894647430E+01 0.51701396054E+01 0.57885927587E+01 0.60226856618E+01
 0.57167800287E+01 0.50198983977E+01 0.43232985727E+01 0.40339453404E+01 0.43235194362E+01
 0.57168923860E+01 0.60311924059E+01 0.59052856959E+01 0.53787736501E+01 0.47058034037E+01
 0.41084987960E+01 0.36762431205E+01 0.34526057419E+01 0.34527095574E+01 0.36763876534E+01