       N       E                     dE             d eps       ncg     rms          rms(c)
DAV:   1    -0.404771246067E+01   -0.40477E+01   -0.12002E+03   750   0.284E+02
DAV:   2    -0.549269463195E+01   -0.14450E+01   -0.13630E+01  1020   0.255E+01
DAV:   3    -0.550154842272E+01   -0.88538E-02   -0.88497E-02   810   0.190E+00
DAV:   4    -0.550155722871E+01   -0.88060E-05   -0.88063E-05   972   0.585E-02
DAV:   5    -0.550155723035E+01   -0.16434E-08   -0.14304E-08   726   0.597E-04    0.731E-01
DAV:   6    -0.548707967654E+01    0.14478E-01   -0.53037E-03   732   0.406E-01    0.428E-01
DAV:   7    -0.547950944575E+01    0.75702E-02   -0.10011E-02   720   0.557E-01    0.282E-02
DAV:   8    -0.547947332720E+01    0.36119E-04   -0.35504E-05   636   0.533E-02
   1 F= -.54794733E+01 E0= -.54780716E+01  d E =-.280340E-02
