diamond Si                              
   5.00000000000000     
     0.000000    0.490819    0.490819
     0.490819    0.000000    0.490819
     0.490819    0.490819    0.000000
   Si
     2
Direct
  0.875000  0.875000  0.875000
  0.125000  0.125000  0.125000
 
   28   28   28
 0.21927865305E+02 0.21720255765E+02 0.20987784688E+02 0.19514425800E+02 0.17337013840E+02
 0.14901610970E+02 0.12956248018E+02 0.12210501820E+02 0.12956064241E+02 0.14901364819E+02
 0.17336833878E+02 0.19514361303E+02 0.20987819677E+02 0.21720354316E+02 0.21927986350E+02
 0.21720354316E+02 0.20987819677E+02 0.19514361303E+02 0.17336833878E+02 0.14901364819E+02
 0.12956064241E+02 0.12210501820E+02 0.12956248018E+02 0.14901610970E+02 0.17337013840E+02
 0.19514425800E+02 0.20987784688E+02 0.21720255765E+02 0.21720255765E+02 0.21499876099E+02
 0.20343307371E+02 0.18102049561E+02 0.15117474105E+02 0.12223442682E+02 0.10430366192E+02
 0.10430166043E+02 0.12223104354E+02 0.15117382997E+02 0.18102137367E+02 0.20343203590E+02
 0.21499553488E+02 0.21720147022E+02 0.21378287946E+02 0.20657790732E+02 0.19546597744E+02
 0.17979962352E+02 0.16109300079E+02 0.14366089994E+02 0.13301352118E+02 0.13301331524E+02
 0.14366193097E+02 0.16109686382E+02 0.17980354569E+02 0.19546544996E+02 0.20657315065E+02
 0.21377925287E+02 0.20987784688E+02 0.20343307371E+02 0.18362142972E+02 0.15171865663E+02
 0.11527810359E+02 0.86052209659E+01 0.74846747727E+01 0.86047993434E+01 0.11527303664E+02
 0.15171608590E+02 0.18362185926E+02 0.20343472262E+02 0.20987908646E+02 0.20657363527E+02
 0.19839487007E+02 0.18739951226E+02 0.17425346768E+02 0.15949629039E+02 0.14497431312E+02
 0.13401780780E+02 0.12990856961E+02 0.13401761362E+02 0.14497457097E+02 0.15949728135E+02
 0.17425464704E+02 0.18740021684E+02 0.19839496360E+02 0.20657315065E+02 0.19514425800E+02
 0.18102049561E+02 0.15171865663E+02 0.11246361449E+02 0.74569373282E+01 0.51198206790E+01
 0.51195782957E+01 0.74563387333E+01 0.11245758165E+02 0.15171659783E+02 0.18102370584E+02
 0.19514939498E+02 0.19546720362E+02 0.18739684529E+02 0.17596960386E+02 0.16300954224E+02
 0.14953824440E+02 0.13675394489E+02 0.12634081944E+02 0.12038437632E+02 0.12038489305E+02
 0.12634083682E+02 0.13675179285E+02 0.14953595852E+02 0.16301081826E+02 0.17597429959E+02
 0.18740021684E+02 0.19546544996E+02 0.17337013840E+02 0.15117474105E+02 0.11527810359E+02
 0.74569373282E+01 0.42151096469E+01 0.29771596580E+01 0.42147518812E+01 0.74565148092E+01
 0.11527607404E+02 0.15117517510E+02 0.17337130876E+02 0.17980402145E+02 0.17425438811E+02
 0.16301040442E+02 0.15004453844E+02 0.13684540103E+02 0.12450171504E+02 0.11418053253E+02
 0.10720951991E+02 0.10473242902E+02 0.10720903792E+02 0.11418005827E+02 0.12450160148E+02
 0.13684557130E+02 0.15004484095E+02 0.16301081826E+02 0.17425464704E+02 0.17980354569E+02
 0.14901610970E+02 0.12223442682E+02 0.86052209659E+01 0.51198206790E+01 0.29771596580E+01
 0.29770413148E+01 0.51196164169E+01 0.86051535283E+01 0.12223473199E+02 0.14901526058E+02
 0.16109484678E+02 0.15949686383E+02 0.14953855173E+02 0.13684847612E+02 0.12379517675E+02
 0.11161212978E+02 0.10125607892E+02 0.93628747799E+01 0.89553985294E+01 0.89552800442E+01
 0.93627313061E+01 0.10125727544E+02 0.11161473108E+02 0.12379538999E+02 0.13684557130E+02
 0.14953595852E+02 0.15949728135E+02 0.16109686382E+02 0.12956248018E+02 0.10430366192E+02
 0.74846747727E+01 0.51195782957E+01 0.42147518812E+01 0.51196164169E+01 0.74847258260E+01
 0.10430406465E+02 0.12956273417E+02 0.14366208875E+02 0.14497462458E+02 0.13675171723E+02
 0.12450149385E+02 0.11161476637E+02 0.99472668555E+01 0.89012851767E+01 0.80937077142E+01
 0.75814949406E+01 0.74056353037E+01 0.75814950186E+01 0.80936964566E+01 0.89012605410E+01
 0.99472448789E+01 0.11161473108E+02 0.12450160148E+02 0.13675179285E+02 0.14497457097E+02
 0.14366193097E+02 0.12210501820E+02 0.10430166043E+02 0.86047993434E+01 0.74563387333E+01
 0.74565148092E+01 0.86051535283E+01 0.10430406465E+02 0.12210571498E+02 0.13301381623E+02
 0.13401835208E+02 0.12634037051E+02 0.11417791367E+02 0.10125562646E+02 0.89013554897E+01
 0.78355333252E+01 0.69885278051E+01 0.64010247664E+01 0.61001976600E+01 0.61003123736E+01
 0.64011855936E+01 0.69884640563E+01 0.78353003335E+01 0.89012605410E+01 0.10125727544E+02
 0.11418005827E+02 0.12634083682E+02 0.13401761362E+02 0.13301331524E+02 0.12956064241E+02
 0.12223104354E+02 0.11527303664E+02 0.11245758165E+02 0.11527607404E+02 0.12223473199E+02
 0.12956273417E+02 0.13301381623E+02 0.12990825774E+02 0.12038481044E+02 0.10720910656E+02
 0.93627227868E+01 0.80936716930E+01 0.69884340481E+01 0.60964597124E+01 0.54461129241E+01
 0.50517224157E+01 0.49196684949E+01 0.50517533326E+01 0.54461546215E+01 0.60964955863E+01
 0.69884640563E+01 0.80936964566E+01 0.93627313061E+01 0.10720903792E+02 0.12038489305E+02
 0.12990856961E+02 0.13301352118E+02 0.14901364819E+02 0.15117382997E+02 0.15171608590E+02
 0.15171659783E+02 0.15117517510E+02 0.14901526058E+02 0.14366208875E+02 0.13401835208E+02
 0.12038481044E+02 0.10473333488E+02 0.89553774809E+01 0.75814805716E+01 0.64010195295E+01
 0.54459673658E+01 0.47311568870E+01 0.42586176718E+01 0.40242415215E+01 0.40241737846E+01
 0.42585193010E+01 0.47311986881E+01 0.54461546215E+01 0.64011855936E+01 0.75814950186E+01
 0.89552800442E+01 0.10473242902E+02 0.12038437632E+02 0.13401780780E+02 0.14366089994E+02
 0.17336833878E+02 0.18102137367E+02 0.18362185926E+02 0.18102370584E+02 0.17337130876E+02
 0.16109484678E+02 0.14497462458E+02 0.12634037051E+02 0.10720910656E+02 0.89553774809E+01
 0.74056191055E+01 0.61002987642E+01 0.50517495938E+01 0.42585194029E+01 0.37092305700E+01
 0.33884143022E+01 0.32831482824E+01 0.33884254247E+01 0.37092383048E+01 0.42585193010E+01
 0.50517533326E+01 0.61003123736E+01 0.74056353037E+01 0.89553985294E+01 0.10720951991E+02
 0.12634081944E+02 0.14497431312E+02 0.16109300079E+02 0.19514361303E+02 0.20343203590E+02
 0.20343472262E+02 0.19514939498E+02 0.17980402145E+02 0.15949686383E+02 0.13675171723E+02
 0.11417791367E+02 0.93627227868E+01 0.75814805716E+01 0.61002987642E+01 0.49198268145E+01
 0.40242864121E+01 0.33884144161E+01 0.29844977515E+01 0.27892235314E+01 0.27892789327E+01
 0.29845939946E+01 0.33884254247E+01 0.40241737846E+01 0.49196684949E+01 0.61001976600E+01
 0.75814949406E+01 0.93628747799E+01 0.11418053253E+02 0.13675394489E+02 0.15949629039E+02
 0.17979962352E+02 0.20987819677E+02 0.21499553488E+02 0.20987908646E+02 0.19546720362E+02
 0.17425438811E+02 0.14953855173E+02 0.12450149385E+02 0.10125562646E+02 0.80936716930E+01
 0.64010195295E+01 0.50517495938E+01 0.40242864121E+01 0.32831938922E+01 0.27893147164E+01
 0.25084019103E+01 0.24174468202E+01 0.25083820285E+01 0.27892789327E+01 0.32831482824E+01
 0.40242415215E+01 0.50517224157E+01 0.64010247664E+01 0.80937077142E+01 0.10125607892E+02
 0.12450171504E+02 0.14953824440E+02 0.17425346768E+02 0.19546597744E+02 0.21720354316E+02
 0.21720147022E+02 0.20657363527E+02 0.18739684529E+02 0.16301040442E+02 0.13684847612E+02
 0.11161476637E+02 0.89013554897E+01 0.69884340481E+01 0.54459673658E+01 0.42585194029E+01
 0.33884144161E+01 0.27893147164E+01 0.24175626459E+01 0.22403315482E+01 0.22402791679E+01
 0.24174468202E+01 0.27892235314E+01 0.33884143022E+01 0.42586176718E+01 0.54461129241E+01
 0.69885278051E+01 0.89012851767E+01 0.11161212978E+02 0.13684540103E+02 0.16300954224E+02
 0.18739951226E+02 0.20657790732E+02 0.21927986350E+02 0.21378287946E+02 0.19839487007E+02
 0.17596960386E+02 0.15004453844E+02 0.12379517675E+02 0.99472668555E+01 0.78355333252E+01
 0.60964597124E+01 0.47311568870E+01 0.37092305700E+01 0.29844977515E+01 0.25084019103E+01
 0.22403315482E+01 0.21539848873E+01 0.22403315482E+01 0.25084019103E+01 0.29844977515E+01
 0.37092305700E+01 0.47311568870E+01 0.60964597124E+01 0.78355333252E+01 0.99472668555E+01
 0.12379517675E+02 0.15004453844E+02 0.17596960386E+02 0.19839487007E+02 0.21378287946E+02
 0.21720354316E+02 0.20657790732E+02 0.18739951226E+02 0.16300954224E+02 0.13684540103E+02
 0.11161212978E+02 0.89012851767E+01 0.69885278051E+01 0.54461129241E+01 0.42586176718E+01
 0.33884143022E+01 0.27892235314E+01 0.24174468202E+01 0.22402791679E+01 0.22403315482E+01
 0.24175626459E+01 0.27893147164E+01 0.33884144161E+01 0.42585194029E+01 0.54459673658E+01
 0.69884340481E+01 0.89013554897E+01 0.11161476637E+02 0.13684847612E+02 0.16301040442E+02
 0.18739684529E+02 0.20657363527E+02 0.21720147022E+02 0.20987819677E+02 0.19546597744E+02
 0.17425346768E+02 0.14953824440E+02 0.12450171504E+02 0.10125607892E+02 0.80937077142E+01
 0.64010247664E+01 0.50517224157E+01 0.40242415215E+01 0.32831482824E+01 0.27892789327E+01
 0.25083820285E+01 0.24174468202E+01 0.25084019103E+01 0.27893147164E+01 0.32831938922E+01
 0.40242864121E+01 0.50517495938E+01 0.64010195295E+01 0.80936716930E+01 0.10125562646E+02
 0.12450149385E+02 0.14953855173E+02 0.17425438811E+02 0.19546720362E+02 0.20987908646E+02
 0.21499553488E+02 0.19514361303E+02 0.17979962352E+02 0.15949629039E+02 0.13675394489E+02
 0.11418053253E+02 0.93628747799E+01 0.75814949406E+01 0.61001976600E+01 0.49196684949E+01
 0.40241737846E+01 0.33884254247E+01 0.29845939946E+01 0.27892789327E+01 0.27892235314E+01
 0.29844977515E+01 0.33884144161E+01 0.40242864121E+01 0.49198268145E+01 0.61002987642E+01
 0.75814805716E+01 0.93627227868E+01 0.11417791367E+02 0.13675171723E+02 0.15949686383E+02
 0.17980402145E+02 0.19514939498E+02 0.20343472262E+02 0.20343203590E+02 0.17336833878E+02
 0.16109300079E+02 0.14497431312E+02 0.12634081944E+02 0.10720951991E+02 0.89553985294E+01
 0.74056353037E+01 0.61003123736E+01 0.50517533326E+01 0.42585193010E+01 0.37092383048E+01
 0.33884254247E+01 0.32831482824E+01 0.33884143022E+01 0.37092305700E+01 0.42585194029E+01
 0.50517495938E+01 0.61002987642E+01 0.74056191055E+01 0.89553774809E+01 0.10720910656E+02
 0.12634037051E+02 0.14497462458E+02 0.16109484678E+02 0.17337130876E+02 0.18102370584E+02
 0.18362185926E+02 0.18102137367E+02 0.14901364819E+02 0.14366089994E+02 0.13401780780E+02
 0.12038437632E+02 0.10473242902E+02 0.89552800442E+01 0.75814950186E+01 0.64011855936E+01
 0.54461546215E+01 0.47311986881E+01 0.42585193010E+01 0.40241737846E+01 0.40242415215E+01
 0.42586176718E+01 0.47311568870E+01 0.54459673658E+01 0.64010195295E+01 0.75814805716E+01
 0.89553774809E+01 0.10473333488E+02 0.12038481044E+02 0.13401835208E+02 0.14366208875E+02
 0.14901526058E+02 0.15117517510E+02 0.15171659783E+02 0.15171608590E+02 0.15117382997E+02
 0.12956064241E+02 0.13301352118E+02 0.12990856961E+02 0.12038489305E+02 0.10720903792E+02
 0.93627313061E+01 0.80936964566E+01 0.69884640563E+01 0.60964955863E+01 0.54461546215E+01
 0.50517533326E+01 0.49196684949E+01 0.50517224157E+01 0.54461129241E+01 0.60964597124E+01
 0.69884340481E+01 0.80936716930E+01 0.93627227868E+01 0.10720910656E+02 0.12038481044E+02
 0.12990825774E+02 0.13301381623E+02 0.12956273417E+02 0.12223473199E+02 0.11527607404E+02
 0.11245758165E+02 0.11527303664E+02 0.12223104354E+02 0.12210501820E+02 0.13301331524E+02
 0.13401761362E+02 0.12634083682E+02 0.11418005827E+02 0.10125727544E+02 0.89012605410E+01
 0.78353003335E+01 0.69884640563E+01 0.64011855936E+01 0.61003123736E+01 0.61001976600E+01
 0.64010247664E+01 0.69885278051E+01 0.78355333252E+01 0.89013554897E+01 0.10125562646E+02
 0.11417791367E+02 0.12634037051E+02 0.13401835208E+02 0.13301381623E+02 0.12210571498E+02
 0.10430406465E+02 0.86051535283E+01 0.74565148092E+01 0.74563387333E+01 0.86047993434E+01
 0.10430166043E+02 0.12956248018E+02 0.14366193097E+02 0.14497457097E+02 0.13675179285E+02
 0.12450160148E+02 0.11161473108E+02 0.99472448789E+01 0.89012605410E+01 0.80936964566E+01
 0.75814950186E+01 0.74056353037E+01 0.75814949406E+01 0.80937077142E+01 0.89012851767E+01
 0.99472668555E+01 0.11161476637E+02 0.12450149385E+02 0.13675171723E+02 0.14497462458E+02
 0.14366208875E+02 0.12956273417E+02 0.10430406465E+02 0.74847258260E+01 0.51196164169E+01
 0.42147518812E+01 0.51195782957E+01 0.74846747727E+01 0.10430366192E+02 0.14901610970E+02
 0.16109686382E+02 0.15949728135E+02 0.14953595852E+02 0.13684557130E+02 0.12379538999E+02
 0.11161473108E+02 0.10125727544E+02 0.93627313061E+01 0.89552800442E+01 0.89553985294E+01
 0.93628747799E+01 0.10125607892E+02 0.11161212978E+02 0.12379517675E+02 0.13684847612E+02
 0.14953855173E+02 0.15949686383E+02 0.16109484678E+02 0.14901526058E+02 0.12223473199E+02
 0.86051535283E+01 0.51196164169E+01 0.29770413148E+01 0.29771596580E+01 0.51198206790E+01
 0.86052209659E+01 0.12223442682E+02 0.17337013840E+02 0.17980354569E+02 0.17425464704E+02
 0.16301081826E+02 0.15004484095E+02 0.13684557130E+02 0.12450160148E+02 0.11418005827E+02
 0.10720903792E+02 0.10473242902E+02 0.10720951991E+02 0.11418053253E+02 0.12450171504E+02
 0.13684540103E+02 0.15004453844E+02 0.16301040442E+02 0.17425438811E+02 0.17980402145E+02
 0.17337130876E+02 0.15117517510E+02 0.11527607404E+02 0.74565148092E+01 0.42147518812E+01
 0.29771596580E+01 0.42151096469E+01 0.74569373282E+01 0.11527810359E+02 0.15117474105E+02
 0.19514425800E+02 0.19546544996E+02 0.18740021684E+02 0.17597429959E+02 0.16301081826E+02
 0.14953595852E+02 0.13675179285E+02 0.12634083682E+02 0.12038489305E+02 0.12038437632E+02
 0.12634081944E+02 0.13675394489E+02 0.14953824440E+02 0.16300954224E+02 0.17596960386E+02
 0.18739684529E+02 0.19546720362E+02 0.19514939498E+02 0.18102370584E+02 0.15171659783E+02
 0.11245758165E+02 0.74563387333E+01 0.51195782957E+01 0.51198206790E+01 0.74569373282E+01
 0.11246361449E+02 0.15171865663E+02 0.18102049561E+02 0.20987784688E+02 0.20657315065E+02
 0.19839496360E+02 0.18740021684E+02 0.17425464704E+02 0.15949728135E+02 0.14497457097E+02
 0.13401761362E+02 0.12990856961E+02 0.13401780780E+02 0.14497431312E+02 0.15949629039E+02
 0.17425346768E+02 0.18739951226E+02 0.19839487007E+02 0.20657363527E+02 0.20987908646E+02
 0.20343472262E+02 0.18362185926E+02 0.15171608590E+02 0.11527303664E+02 0.86047993434E+01
 0.74846747727E+01 0.86052209659E+01 0.11527810359E+02 0.15171865663E+02 0.18362142972E+02
 0.20343307371E+02 0.21720255765E+02 0.21377925287E+02 0.20657315065E+02 0.19546544996E+02
 0.17980354569E+02 0.16109686382E+02 0.14366193097E+02 0.13301331524E+02 0.13301352118E+02
 0.14366089994E+02 0.16109300079E+02 0.17979962352E+02 0.19546597744E+02 0.20657790732E+02
 0.21378287946E+02 0.21720147022E+02 0.21499553488E+02 0.20343203590E+02 0.18102137367E+02
 0.15117382997E+02 0.12223104354E+02 0.10430166043E+02 0.10430366192E+02 0.12223442682E+02
 0.15117474105E+02 0.18102049561E+02 0.20343307371E+02 0.21499876099E+02 0.21720254464E+02
 0.21499904734E+02 0.20343338245E+02 0.18102006893E+02 0.15117291066E+02 0.12223171160E+02
 0.10430201037E+02 0.10430283080E+02 0.12223455374E+02 0.15117713968E+02 0.18102243875E+02
 0.20343114884E+02 0.21499430415E+02 0.21720075738E+02 0.21378256729E+02 0.20657811783E+02
 0.19546719656E+02 0.17980144201E+02 0.16109382355E+02 0.14365957964E+02 0.13301079825E+02
 0.13301109390E+02 0.14366137330E+02 0.16109758725E+02 0.17980445740E+02 0.19546586777E+02
 0.20657309020E+02 0.21377905832E+02 0.21499904734E+02 0.20786761416E+02 0.18664479513E+02
 0.15274139647E+02 0.11414682710E+02 0.83245120496E+01 0.71409722328E+01 0.83252214570E+01
 0.11415568341E+02 0.15274586064E+02 0.18664273033E+02 0.20786188681E+02 0.21499447494E+02
 0.21176686319E+02 0.20334942041E+02 0.19203040013E+02 0.17845619899E+02 0.16311695648E+02
 0.14796344407E+02 0.13650909493E+02 0.13221177229E+02 0.13651361888E+02 0.14796878199E+02
 0.16311906381E+02 0.17845389535E+02 0.19202573688E+02 0.20334589529E+02 0.21176725441E+02
 0.20343338245E+02 0.18664479513E+02 0.15309933100E+02 0.10872113518E+02 0.66120457570E+01
 0.39915917966E+01 0.39919662438E+01 0.66127626160E+01 0.10872480265E+02 0.15309803090E+02
 0.18664258582E+02 0.20343297807E+02 0.20479785336E+02 0.19655529016E+02 0.18450029082E+02
 0.17080841347E+02 0.15654791006E+02 0.14292505074E+02 0.13174367618E+02 0.12532170115E+02
 0.12532423700E+02 0.13174806900E+02 0.14292610756E+02 0.15654533981E+02 0.17080639416E+02
 0.18450109249E+02 0.19655679574E+02 0.20479804657E+02 0.18102006893E+02 0.15274139647E+02
 0.10872113518E+02 0.59551918005E+01 0.20665994886E+01 0.58591234505E+00 0.20664792134E+01
 0.59550815192E+01 0.10872144793E+02 0.15274312786E+02 0.18102180889E+02 0.19083937986E+02
 0.18624759990E+02 0.17440464958E+02 0.16047320157E+02 0.14623525596E+02 0.13287348603E+02
 0.12165991628E+02 0.11406252668E+02 0.11135675359E+02 0.11406233709E+02 0.12165916748E+02
 0.13287238287E+02 0.14623488392E+02 0.16047444080E+02 0.17440697161E+02 0.18624932560E+02
 0.19083922047E+02 0.15117291066E+02 0.11414682710E+02 0.66120457570E+01 0.20665994886E+01
 -.70584350851E+00 -.70605564181E+00 0.20662442509E+01 0.66119857740E+01 0.11414898184E+02
 0.15117375838E+02 0.17019958140E+02 0.17193532546E+02 0.16242101618E+02 0.14882120928E+02
 0.13463205925E+02 0.12129369803E+02 0.10989510126E+02 0.10146339170E+02 0.96945664507E+01
 0.96944427529E+01 0.10146154045E+02 0.10989526199E+02 0.12129513185E+02 0.13463199417E+02
 0.14881954089E+02 0.16242073815E+02 0.17193772743E+02 0.17020179269E+02 0.12223171160E+02
 0.83245120496E+01 0.39915917966E+01 0.58591234505E+00 -.70605564181E+00 0.58576498209E+00
 0.39913882313E+01 0.83243461011E+01 0.12223056370E+02 0.14710031425E+02 0.15494347072E+02
 0.14922778072E+02 0.13677118739E+02 0.12293205620E+02 0.10965792838E+02 0.98102375063E+01
 0.89116752941E+01 0.83389778050E+01 0.81418471070E+01 0.83390008124E+01 0.89117467309E+01
 0.98103100669E+01 0.10965763158E+02 0.12293062711E+02 0.13676985741E+02 0.14922763955E+02
 0.15494430466E+02 0.14710135464E+02 0.10430201037E+02 0.71409722328E+01 0.39919662438E+01
 0.20664792134E+01 0.20662442509E+01 0.39913882313E+01 0.71403863588E+01 0.10429963318E+02
 0.12864238791E+02 0.13914511483E+02 0.13641304623E+02 0.12543482035E+02 0.11206748792E+02
 0.98938151641E+01 0.87268812093E+01 0.77874277033E+01 0.71303335985E+01 0.67922110759E+01
 0.67923045504E+01 0.71304732210E+01 0.77873985418E+01 0.87267171529E+01 0.98937641078E+01
 0.11206911685E+02 0.12543634644E+02 0.13641176164E+02 0.13914163268E+02 0.12864041336E+02
 0.10430283080E+02 0.83252214570E+01 0.66127626160E+01 0.59550815192E+01 0.66119857740E+01
 0.83243461011E+01 0.10429963318E+02 0.12156603543E+02 0.12950330471E+02 0.12680794312E+02
 0.11634182929E+02 0.10305001436E+02 0.89911682003E+01 0.78081930068E+01 0.68329313835E+01
 0.61120304010E+01 0.56711767773E+01 0.55229609913E+01 0.56711772657E+01 0.61120141952E+01
 0.68328922822E+01 0.78081699772E+01 0.89912309164E+01 0.10305153944E+02 0.11634275539E+02
 0.12680619997E+02 0.12949909100E+02 0.12156327213E+02 0.12223455374E+02 0.11415568341E+02
 0.10872480265E+02 0.10872144793E+02 0.11414898184E+02 0.12223056370E+02 0.12864238791E+02
 0.12950330471E+02 0.12321448923E+02 0.11118828542E+02 0.96997095142E+01 0.83317137136E+01
 0.71070084197E+01 0.60871957176E+01 0.53088515922E+01 0.47878420278E+01 0.45276187033E+01
 0.45275544185E+01 0.47877707781E+01 0.53089336240E+01 0.60873557755E+01 0.71070475581E+01
 0.83316228490E+01 0.96996603803E+01 0.11118855022E+02 0.12321371153E+02 0.12950102517E+02
 0.12864169598E+02 0.15117713968E+02 0.15274586064E+02 0.15309803090E+02 0.15274312786E+02
 0.15117375838E+02 0.14710031425E+02 0.13914511483E+02 0.12680794312E+02 0.11118828542E+02
 0.94852820870E+01 0.79812447241E+01 0.66657954893E+01 0.55762220487E+01 0.47327218849E+01
 0.41392768862E+01 0.37892999241E+01 0.36739329314E+01 0.37892995153E+01 0.41393147802E+01
 0.47327986616E+01 0.55762859619E+01 0.66658150311E+01 0.79812356304E+01 0.94852467772E+01
 0.11118737445E+02 0.12680670604E+02 0.13914480336E+02 0.14710210576E+02 0.18102243875E+02
 0.18664273033E+02 0.18664258582E+02 0.18102180889E+02 0.17019958140E+02 0.15494347072E+02
 0.13641304623E+02 0.11634182929E+02 0.96997095142E+01 0.79812447241E+01 0.65148279513E+01
 0.53163328736E+01 0.43871498760E+01 0.37163101501E+01 0.32854025695E+01 0.30757896915E+01
 0.30758301310E+01 0.32854580014E+01 0.37162863198E+01 0.43870745829E+01 0.53163208971E+01
 0.65149099642E+01 0.79813178192E+01 0.96996837716E+01 0.11634108717E+02 0.13641300729E+02
 0.15494443063E+02 0.17020073666E+02 0.20343114884E+02 0.20786188681E+02 0.20343297807E+02
 0.19083937986E+02 0.17193532546E+02 0.14922778072E+02 0.12543482035E+02 0.10305001436E+02
 0.83317137136E+01 0.66657954893E+01 0.53163328736E+01 0.42720038920E+01 0.35081840002E+01
 0.29938763535E+01 0.26994644401E+01 0.26038659604E+01 0.26994662473E+01 0.29938661417E+01
 0.35081478537E+01 0.42719396726E+01 0.53162565200E+01 0.66657474190E+01 0.83317496055E+01
 0.10305146603E+02 0.12543677088E+02 0.14922891545E+02 0.17193464396E+02 0.19083727953E+02
 0.21499430415E+02 0.21499447494E+02 0.20479785336E+02 0.18624759990E+02 0.16242101618E+02
 0.13677118739E+02 0.11206748792E+02 0.89911682003E+01 0.71070084197E+01 0.55762220487E+01
 0.43871498760E+01 0.35081840002E+01 0.28986148768E+01 0.25185075224E+01 0.23368176490E+01
 0.23367823865E+01 0.25184420618E+01 0.28985816114E+01 0.35081813259E+01 0.43871286950E+01
 0.55761750769E+01 0.71069924611E+01 0.89912237185E+01 0.11206835783E+02 0.13677159435E+02
 0.16242068158E+02 0.18624692394E+02 0.20479733905E+02 0.21720075738E+02 0.21176686319E+02
 0.19655529016E+02 0.17440464958E+02 0.14882120928E+02 0.12293205620E+02 0.98938151641E+01
 0.78081930068E+01 0.60871957176E+01 0.47327218849E+01 0.37163101501E+01 0.29938763535E+01
 0.25185075224E+01 0.22505823933E+01 0.21642378953E+01 0.22505469089E+01 0.25184374340E+01
 0.29938115556E+01 0.37163219899E+01 0.47328343119E+01 0.60873272362E+01 0.78082109398E+01
 0.98936637793E+01 0.12292977533E+02 0.14881992261E+02 0.17440545662E+02 0.19655761096E+02
 0.21176883265E+02 0.21378256729E+02 0.20334942041E+02 0.18450029082E+02 0.16047320157E+02
 0.13463205925E+02 0.10965792838E+02 0.87268812093E+01 0.68329313835E+01 0.53088515922E+01
 0.41392768862E+01 0.32854025695E+01 0.26994644401E+01 0.23368176490E+01 0.21642378953E+01
 0.21642709248E+01 0.23368717766E+01 0.26994725952E+01 0.32853723871E+01 0.41392676819E+01
 0.53088761183E+01 0.68329428167E+01 0.87268608231E+01 0.10965786969E+02 0.13463243980E+02
 0.16047344787E+02 0.18449964916E+02 0.20334816657E+02 0.21378191545E+02 0.20657811783E+02
 0.19203040013E+02 0.17080841347E+02 0.14623525596E+02 0.12129369803E+02 0.98102375063E+01
 0.77874277033E+01 0.61120304010E+01 0.47878420278E+01 0.37892999241E+01 0.30757896915E+01
 0.26038659604E+01 0.23367823865E+01 0.22505469089E+01 0.23368717766E+01 0.26039959361E+01
 0.30758754128E+01 0.37892643566E+01 0.47876835243E+01 0.61118600617E+01 0.77874151234E+01
 0.98104693922E+01 0.12129726790E+02 0.14623721724E+02 0.17080655843E+02 0.19202555438E+02
 0.20657397264E+02 0.21176931321E+02 0.19546719656E+02 0.17845619899E+02 0.15654791006E+02
 0.13287348603E+02 0.10989510126E+02 0.89116752941E+01 0.71303335985E+01 0.56711767773E+01
 0.45276187033E+01 0.36739329314E+01 0.30758301310E+01 0.26994662473E+01 0.25184420618E+01
 0.25184374340E+01 0.26994725952E+01 0.30758754128E+01 0.36740014332E+01 0.45276574031E+01
 0.56711594549E+01 0.71302992369E+01 0.89116847413E+01 0.10989571657E+02 0.13287405860E+02
 0.15654785755E+02 0.17845551133E+02 0.19546639367E+02 0.20479798224E+02 0.20479832705E+02
 0.17980144201E+02 0.16311695648E+02 0.14292505074E+02 0.12165991628E+02 0.10146339170E+02
 0.83389778050E+01 0.67922110759E+01 0.55229609913E+01 0.45275544185E+01 0.37892995153E+01
 0.32854580014E+01 0.29938661417E+01 0.28985816114E+01 0.29938115556E+01 0.32853723871E+01
 0.37892643566E+01 0.45276574031E+01 0.55231703194E+01 0.67923563460E+01 0.83389098976E+01
 0.10146092945E+02 0.12165761647E+02 0.14292471449E+02 0.16311885546E+02 0.17980432157E+02
 0.19084042078E+02 0.19470487419E+02 0.19083836263E+02 0.16109382355E+02 0.14796344407E+02
 0.13174367618E+02 0.11406252668E+02 0.96945664507E+01 0.81418471070E+01 0.67923045504E+01
 0.56711772657E+01 0.47877707781E+01 0.41393147802E+01 0.37162863198E+01 0.35081478537E+01
 0.35081813259E+01 0.37163219899E+01 0.41392676819E+01 0.47876835243E+01 0.56711594549E+01
 0.67923563460E+01 0.81418574599E+01 0.96945019142E+01 0.11406234658E+02 0.13174492678E+02
 0.14796511864E+02 0.16109410160E+02 0.17019978935E+02 0.17483935290E+02 0.17484014431E+02
 0.17020097897E+02 0.14365957964E+02 0.13650909493E+02 0.12532170115E+02 0.11135675359E+02
 0.96944427529E+01 0.83390008124E+01 0.71304732210E+01 0.61120141952E+01 0.53089336240E+01
 0.47327986616E+01 0.43870745829E+01 0.42719396726E+01 0.43871286950E+01 0.47328343119E+01
 0.53088761183E+01 0.61118600617E+01 0.71302992369E+01 0.83389098976E+01 0.96945019142E+01
 0.11135881427E+02 0.12532437677E+02 0.13651092848E+02 0.14365939767E+02 0.14709885706E+02
 0.14819905970E+02 0.14837237355E+02 0.14820092255E+02 0.14710078591E+02 0.13301079825E+02
 0.13221177229E+02 0.12532423700E+02 0.11406233709E+02 0.10146154045E+02 0.89117467309E+01
 0.77873985418E+01 0.68328922822E+01 0.60873557755E+01 0.55762859619E+01 0.53163208971E+01
 0.53162565200E+01 0.55761750769E+01 0.60873272362E+01 0.68329428167E+01 0.77874151234E+01
 0.89116847413E+01 0.10146092945E+02 0.11406234658E+02 0.12532437677E+02 0.13221170518E+02
 0.13301164057E+02 0.12864214615E+02 0.12228431636E+02 0.11780664796E+02 0.11780472289E+02
 0.12228028788E+02 0.12863915399E+02 0.13301109390E+02 0.13651361888E+02 0.13174806900E+02
 0.12165916748E+02 0.10989526199E+02 0.98103100669E+01 0.87267171529E+01 0.78081699772E+01
 0.71070475581E+01 0.66658150311E+01 0.65149099642E+01 0.66657474190E+01 0.71069924611E+01
 0.78082109398E+01 0.87268608231E+01 0.98104693922E+01 0.10989571657E+02 0.12165761647E+02
 0.13174492678E+02 0.13651092848E+02 0.13301164057E+02 0.12156596954E+02 0.10620429464E+02
 0.93170162392E+01 0.88074874252E+01 0.93164306077E+01 0.10619649800E+02 0.12156082834E+02
 0.14366137330E+02 0.14796878199E+02 0.14292610756E+02 0.13287238287E+02 0.12129513185E+02
 0.10965763158E+02 0.98937641078E+01 0.89912309164E+01 0.83316228490E+01 0.79812356304E+01
 0.79813178192E+01 0.83317496055E+01 0.89912237185E+01 0.98936637793E+01 0.10965786969E+02
 0.12129726790E+02 0.13287405860E+02 0.14292471449E+02 0.14796511864E+02 0.14365939767E+02
 0.12864214615E+02 0.10620429464E+02 0.83705030255E+01 0.69629923983E+01 0.69627132699E+01
 0.83698240830E+01 0.10619750106E+02 0.12863931949E+02 0.16109758725E+02 0.16311906381E+02
 0.15654533981E+02 0.14623488392E+02 0.13463199417E+02 0.12293062711E+02 0.11206911685E+02
 0.10305153944E+02 0.96996603803E+01 0.94852467772E+01 0.96996837716E+01 0.10305146603E+02
 0.11206835783E+02 0.12292977533E+02 0.13463243980E+02 0.14623721724E+02 0.15654785755E+02
 0.16311885546E+02 0.16109410160E+02 0.14709885706E+02 0.12228431636E+02 0.93170162392E+01
 0.69629923983E+01 0.60583741624E+01 0.69622608506E+01 0.93162167944E+01 0.12228184759E+02
 0.14710182100E+02 0.17980445740E+02 0.17845389535E+02 0.17080639416E+02 0.16047444080E+02
 0.14881954089E+02 0.13676985741E+02 0.12543634644E+02 0.11634275539E+02 0.11118855022E+02
 0.11118737445E+02 0.11634108717E+02 0.12543677088E+02 0.13677159435E+02 0.14881992261E+02
 0.16047344787E+02 0.17080655843E+02 0.17845551133E+02 0.17980432157E+02 0.17019978935E+02
 0.14819905970E+02 0.11780664796E+02 0.88074874252E+01 0.69627132699E+01 0.69622608506E+01
 0.88066139862E+01 0.11780216987E+02 0.14820097949E+02 0.17020301000E+02 0.19546586777E+02
 0.19202573688E+02 0.18450109249E+02 0.17440697161E+02 0.16242073815E+02 0.14922763955E+02
 0.13641176164E+02 0.12680619997E+02 0.12321371153E+02 0.12680670604E+02 0.13641300729E+02
 0.14922891545E+02 0.16242068158E+02 0.17440545662E+02 0.18449964916E+02 0.19202555438E+02
 0.19546639367E+02 0.19084042078E+02 0.17483935290E+02 0.14837237355E+02 0.11780472289E+02
 0.93164306077E+01 0.83698240830E+01 0.93162167944E+01 0.11780216987E+02 0.14837102524E+02
 0.17483914970E+02 0.19084020822E+02 0.20657309020E+02 0.20334589529E+02 0.19655679574E+02
 0.18624932560E+02 0.17193772743E+02 0.15494430466E+02 0.13914163268E+02 0.12949909100E+02
 0.12950102517E+02 0.13914480336E+02 0.15494443063E+02 0.17193464396E+02 0.18624692394E+02
 0.19655761096E+02 0.20334816657E+02 0.20657397264E+02 0.20479798224E+02 0.19470487419E+02
 0.17484014431E+02 0.14820092255E+02 0.12228028788E+02 0.10619649800E+02 0.10619750106E+02
 0.12228184759E+02 0.14820097949E+02 0.17483914970E+02 0.19470466794E+02 0.20479841576E+02
 0.21377905832E+02 0.21176725441E+02 0.20479804657E+02 0.19083922047E+02 0.17020179269E+02
 0.14710135464E+02 0.12864041336E+02 0.12156327213E+02 0.12864169598E+02 0.14710210576E+02
 0.17020073666E+02 0.19083727953E+02 0.20479733905E+02 0.21176883265E+02 0.21378191545E+02
 0.21176931321E+02 0.20479832705E+02 0.19083836263E+02 0.17020097897E+02 0.14710078591E+02
 0.12863915399E+02 0.12156082834E+02 0.12863931949E+02 0.14710182100E+02 0.17020301000E+02
 0.19084020822E+02 0.20479841576E+02 0.21176725441E+02 0.20987791031E+02 0.20343336943E+02
 0.18362149314E+02 0.15171767349E+02 0.11527576110E+02 0.86049414722E+01 0.74845225410E+01
 0.86048848090E+01 0.11527568911E+02 0.15171879087E+02 0.18362325577E+02 0.20343474129E+02
 0.20987846875E+02 0.20657298738E+02 0.19839440654E+02 0.18739942697E+02 0.17425406674E+02
 0.15949758976E+02 0.14497570964E+02 0.13401840197E+02 0.12990790312E+02 0.13401607164E+02
 0.14497304866E+02 0.15949645941E+02 0.17425455436E+02 0.18740040523E+02 0.19839502703E+02
 0.20657307719E+02 0.20343336943E+02 0.18664538192E+02 0.15310065049E+02 0.10872218948E+02
 0.66119389576E+01 0.39912011708E+01 0.39914937715E+01 0.66125433387E+01 0.10872646727E+02
 0.15310157945E+02 0.18664512168E+02 0.20343353181E+02 0.20479735356E+02 0.19655462854E+02
 0.18449959665E+02 0.17080794997E+02 0.15654839825E+02 0.14292664902E+02 0.13174535438E+02
 0.12532219313E+02 0.12532335964E+02 0.13174675342E+02 0.14292530602E+02 0.15654522160E+02
 0.17080654347E+02 0.18450113908E+02 0.19655667402E+02 0.20479785965E+02 0.18362149314E+02
 0.15310065049E+02 0.10609405824E+02 0.53813922060E+01 0.12548152572E+01 -.31512276020E+00