       N       E                     dE             d eps       ncg     rms          rms(c)
DAV:   1    -0.150926120771E+01   -0.15093E+01   -0.22005E+03   920   0.436E+02
DAV:   2    -0.111033589511E+02   -0.95941E+01   -0.90499E+01  1400   0.596E+01
DAV:   3    -0.111844455977E+02   -0.81087E-01   -0.81087E-01  1048   0.692E+00
DAV:   4    -0.111846844142E+02   -0.23882E-03   -0.23882E-03  1504   0.358E-01
DAV:   5    -0.111846844808E+02   -0.66508E-07   -0.66878E-07  1088   0.484E-03    0.391E+00
DAV:   6    -0.108027411310E+02    0.38194E+00   -0.30803E-01   944   0.294E+00    0.215E+00
DAV:   7    -0.106590625149E+02    0.14368E+00   -0.40473E-01  1088   0.341E+00    0.228E-01
DAV:   8    -0.106592087043E+02   -0.14619E-03   -0.11221E-02   976   0.782E-01    0.866E-02
DAV:   9    -0.106588629535E+02    0.34575E-03   -0.10202E-03  1232   0.185E-01    0.126E-02
DAV:  10    -0.106588665038E+02   -0.35503E-05   -0.14316E-05   520   0.354E-02
   1 F= -.10658867E+02 E0= -.10658242E+02  d E =-.124816E-02
