fcc Si                                  
   4.30000000000000     
     0.445088    0.445088    0.000000
     0.000000    0.445088    0.445088
     0.445088    0.000000    0.445088
   Si
     1
Direct
  0.000000  0.000000  0.000000
 
   20   20   20
 -.24955892107E+01 -.17326427947E+01 0.23820662323E+00 0.26322091727E+01 0.46004107266E+01
 0.56242556289E+01 0.56891541863E+01 0.51817925700E+01 0.46043314630E+01 0.42090499175E+01
 0.40698369445E+01 0.42090499175E+01 0.46043314630E+01 0.51817925700E+01 0.56891541863E+01
 0.56242556289E+01 0.46004107266E+01 0.26322091727E+01 0.23820662323E+00 -.17326427947E+01
 -.17326427947E+01 -.36843424064E+00 0.17925130688E+01 0.39167043023E+01 0.53189261652E+01
 0.57512397681E+01 0.54292106951E+01 0.48287182814E+01 0.43335025412E+01 0.40638390125E+01
 0.40639353554E+01 0.43336632690E+01 0.48287213409E+01 0.54290545644E+01 0.57512080359E+01
 0.53191905212E+01 0.39169601008E+01 0.17922982381E+01 -.36903916850E+00 -.17329783762E+01
 0.23820662323E+00 0.17925130688E+01 0.36377728761E+01 0.50766115663E+01 0.57058698832E+01
 0.55557002423E+01 0.49884297323E+01 0.44265841710E+01 0.40489945741E+01 0.39168752239E+01
 0.40489649884E+01 0.44265616326E+01 0.49884428113E+01 0.55557267225E+01 0.57058648091E+01
 0.50765874796E+01 0.36378107859E+01 0.17926482320E+01 0.23834059808E+00 -.36903916850E+00
 0.26322091727E+01 0.39167043023E+01 0.50766115663E+01 0.56730078492E+01 0.55991111753E+01
 0.50791022276E+01 0.44854521974E+01 0.40315622218E+01 0.37891342086E+01 0.37890482481E+01
 0.40314203395E+01 0.44854443785E+01 0.50792149455E+01 0.55991113817E+01 0.56728036684E+01
 0.50765095096E+01 0.39170715961E+01 0.26328887449E+01 0.17926482320E+01 0.17922982381E+01
 0.46004107266E+01 0.53189261652E+01 0.57058698832E+01 0.55991111753E+01 0.51075404772E+01
 0.45132909366E+01 0.40179960631E+01 0.36967759073E+01 0.35861950622E+01 0.36967667004E+01
 0.40179973438E+01 0.45133102180E+01 0.51075612743E+01 0.55991257179E+01 0.57059064588E+01
 0.53190240355E+01 0.46005557263E+01 0.39170715961E+01 0.36378107859E+01 0.39169601008E+01
 0.56242556289E+01 0.57512397681E+01 0.55557002423E+01 0.50791022276E+01 0.45132909366E+01
 0.40130150462E+01 0.36489700684E+01 0.34595155196E+01 0.34595451827E+01 0.36490223690E+01
 0.40130461036E+01 0.45133276357E+01 0.50791927715E+01 0.55558095266E+01 0.57512606982E+01
 0.56241410235E+01 0.53190240355E+01 0.50765095096E+01 0.50765874796E+01 0.53191905212E+01
 0.56891541863E+01 0.54292106951E+01 0.49884297323E+01 0.44854521974E+01 0.40179960631E+01
 0.36489700684E+01 0.34167946322E+01 0.33380865365E+01 0.34168192036E+01 0.36489878054E+01
 0.40179890261E+01 0.44854370686E+01 0.49884259581E+01 0.54292279815E+01 0.56891931321E+01
 0.57512606982E+01 0.57059064588E+01 0.56728036684E+01 0.57058648091E+01 0.57512080359E+01
 0.51817925700E+01 0.48287182814E+01 0.44265841710E+01 0.40315622218E+01 0.36967759073E+01
 0.34595155196E+01 0.33380865365E+01 0.33381071544E+01 0.34595394290E+01 0.36967286064E+01
 0.40314241803E+01 0.44264567546E+01 0.48287329959E+01 0.51819522008E+01 0.54292279815E+01
 0.55558095266E+01 0.55991257179E+01 0.55991113817E+01 0.55557267225E+01 0.54290545644E+01
 0.46043314630E+01 0.43335025412E+01 0.40489945741E+01 0.37891342086E+01 0.35861950622E+01
 0.34595451827E+01 0.34168192036E+01 0.34595394290E+01 0.35861793899E+01 0.37891148286E+01
 0.40489891883E+01 0.43335220610E+01 0.46043624851E+01 0.48287329959E+01 0.49884259581E+01
 0.50791927715E+01 0.51075612743E+01 0.50792149455E+01 0.49884428113E+01 0.48287213409E+01
 0.42090499175E+01 0.40638390125E+01 0.39168752239E+01 0.37890482481E+01 0.36967667004E+01
 0.36490223690E+01 0.36489878054E+01 0.36967286064E+01 0.37891148286E+01 0.39170433044E+01
 0.40639685258E+01 0.42090204036E+01 0.43335220610E+01 0.44264567546E+01 0.44854370686E+01
 0.45133276357E+01 0.45133102180E+01 0.44854443785E+01 0.44265616326E+01 0.43336632690E+01
 0.40698369445E+01 0.40639353554E+01 0.40489649884E+01 0.40314203395E+01 0.40179973438E+01
 0.40130461036E+01 0.40179890261E+01 0.40314241803E+01 0.40489891883E+01 0.40639685258E+01
 0.40698709716E+01 0.40639685258E+01 0.40489891883E+01 0.40314241803E+01 0.40179890261E+01
 0.40130461036E+01 0.40179973438E+01 0.40314203395E+01 0.40489649884E+01 0.40639353554E+01
 0.42090499175E+01 0.43336632690E+01 0.44265616326E+01 0.44854443785E+01 0.45133102180E+01
 0.45133276357E+01 0.44854370686E+01 0.44264567546E+01 0.43335220610E+01 0.42090204036E+01
 0.40639685258E+01 0.39170433044E+01 0.37891148286E+01 0.36967286064E+01 0.36489878054E+01
 0.36490223690E+01 0.36967667004E+01 0.37890482481E+01 0.39168752239E+01 0.40638390125E+01
 0.46043314630E+01 0.48287213409E+01 0.49884428113E+01 0.50792149455E+01 0.51075612743E+01
 0.50791927715E+01 0.49884259581E+01 0.48287329959E+01 0.46043624851E+01 0.43335220610E+01
 0.40489891883E+01 0.37891148286E+01 0.35861793899E+01 0.34595394290E+01 0.34168192036E+01
 0.34595451827E+01 0.35861950622E+01 0.37891342086E+01 0.40489945741E+01 0.43335025412E+01
 0.51817925700E+01 0.54290545644E+01 0.55557267225E+01 0.55991113817E+01 0.55991257179E+01
 0.55558095266E+01 0.54292279815E+01 0.51819522008E+01 0.48287329959E+01 0.44264567546E+01
 0.40314241803E+01 0.36967286064E+01 0.34595394290E+01 0.33381071544E+01 0.33380865365E+01
 0.34595155196E+01 0.36967759073E+01 0.40315622218E+01 0.44265841710E+01 0.48287182814E+01
 0.56891541863E+01 0.57512080359E+01 0.57058648091E+01 0.56728036684E+01 0.57059064588E+01
 0.57512606982E+01 0.56891931321E+01 0.54292279815E+01 0.49884259581E+01 0.44854370686E+01
 0.40179890261E+01 0.36489878054E+01 0.34168192036E+01 0.33380865365E+01 0.34167946322E+01
 0.36489700684E+01 0.40179960631E+01 0.44854521974E+01 0.49884297323E+01 0.54292106951E+01
 0.56242556289E+01 0.53191905212E+01 0.50765874796E+01 0.50765095096E+01 0.53190240355E+01
 0.56241410235E+01 0.57512606982E+01 0.55558095266E+01 0.50791927715E+01 0.45133276357E+01
 0.40130461036E+01 0.36490223690E+01 0.34595451827E+01 0.34595155196E+01 0.36489700684E+01
 0.40130150462E+01 0.45132909366E+01 0.50791022276E+01 0.55557002423E+01 0.57512397681E+01
 0.46004107266E+01 0.39169601008E+01 0.36378107859E+01 0.39170715961E+01 0.46005557263E+01
 0.53190240355E+01 0.57059064588E+01 0.55991257179E+01 0.51075612743E+01 0.45133102180E+01
 0.40179973438E+01 0.36967667004E+01 0.35861950622E+01 0.36967759073E+01 0.40179960631E+01
 0.45132909366E+01 0.51075404772E+01 0.55991111753E+01 0.57058698832E+01 0.53189261652E+01
 0.26322091727E+01 0.17922982381E+01 0.17926482320E+01 0.26328887449E+01 0.39170715961E+01
 0.50765095096E+01 0.56728036684E+01 0.55991113817E+01 0.50792149455E+01 0.44854443785E+01
 0.40314203395E+01 0.37890482481E+01 0.37891342086E+01 0.40315622218E+01 0.44854521974E+01
 0.50791022276E+01 0.55991111753E+01 0.56730078492E+01 0.50766115663E+01 0.39167043023E+01
 0.23820662323E+00 -.36903916850E+00 0.23834059808E+00 0.17926482320E+01 0.36378107859E+01
 0.50765874796E+01 0.57058648091E+01 0.55557267225E+01 0.49884428113E+01 0.44265616326E+01
 0.40489649884E+01 0.39168752239E+01 0.40489945741E+01 0.44265841710E+01 0.49884297323E+01
 0.55557002423E+01 0.57058698832E+01 0.50766115663E+01 0.36377728761E+01 0.17925130688E+01
 -.17326427947E+01 -.17329783762E+01 -.36903916850E+00 0.17922982381E+01 0.39169601008E+01
 0.53191905212E+01 0.57512080359E+01 0.54290545644E+01 0.48287213409E+01 0.43336632690E+01
 0.40639353554E+01 0.40638390125E+01 0.43335025412E+01 0.48287182814E+01 0.54292106951E+01
 0.57512397681E+01 0.53189261652E+01 0.39167043023E+01 0.17925130688E+01 -.36843424064E+00
 -.17328271051E+01 -.36835774299E+00 0.17927837970E+01 0.39169330478E+01 0.53189549166E+01
 0.57511735734E+01 0.54292317259E+01 0.48288067194E+01 0.43335151906E+01 0.40637815520E+01
 0.40639396284E+01 0.43337350436E+01 0.48287341677E+01 0.54289920816E+01 0.57512012614E+01
 0.53192821288E+01 0.39170074667E+01 0.17921586634E+01 -.36934722214E+00 -.17333112398E+01
 -.36835774299E+00 0.13205872163E+01 0.33414216558E+01 0.49477720702E+01 0.57001982554E+01
 0.56155765436E+01 0.50647650708E+01 0.44969065303E+01 0.41130726385E+01 0.39784654363E+01
 0.41130677196E+01 0.44968478577E+01 0.50646904671E+01 0.56156579961E+01 0.57005068032E+01
 0.49479787256E+01 0.33409965334E+01 0.13194945005E+01 -.36934423000E+00 -.10266493652E+01
 0.17927837970E+01 0.33414216558E+01 0.47879887509E+01 0.56189686221E+01 0.56868921022E+01
 0.52160513770E+01 0.46145652025E+01 0.41464030166E+01 0.38948256738E+01 0.38947462307E+01
 0.41462388919E+01 0.46144782939E+01 0.52161459551E+01 0.56870931897E+01 0.56190609527E+01
 0.47878044740E+01 0.33410030893E+01 0.17923630468E+01 0.79324639246E+00 0.79342090135E+00
 0.39169330478E+01 0.49477720702E+01 0.56189686221E+01 0.57013497236E+01 0.52854856324E+01
 0.46837952758E+01 0.41654935373E+01 0.38259088799E+01 0.37085067192E+01 0.38259797924E+01
 0.41654955220E+01 0.46836953798E+01 0.52854044289E+01 0.57013480981E+01 0.56189875292E+01
 0.49477909679E+01 0.39169989001E+01 0.29887904358E+01 0.26167486024E+01 0.29887071023E+01
 0.53189549166E+01 0.57001982554E+01 0.56868921022E+01 0.52854856324E+01 0.47065410397E+01
 0.41740995543E+01 0.37815536637E+01 0.35758001084E+01 0.35758825873E+01 0.37816785338E+01
 0.41740766158E+01 0.47063833453E+01 0.52853980240E+01 0.56869935097E+01 0.57003712911E+01
 0.53190127650E+01 0.47649510382E+01 0.43681811282E+01 0.43682383377E+01 0.47650267836E+01
 0.57511735734E+01 0.56155765436E+01 0.52160513770E+01 0.46837952758E+01 0.41740995543E+01
 0.37664792511E+01 0.35079055716E+01 0.34198612277E+01 0.35078928596E+01 0.37664570239E+01
 0.41740839877E+01 0.46838161906E+01 0.52161211113E+01 0.56156466691E+01 0.57511551410E+01
 0.56452189416E+01 0.54559738633E+01 0.53663974479E+01 0.54560996158E+01 0.56453435727E+01
 0.54292317259E+01 0.50647650708E+01 0.46145652025E+01 0.41654935373E+01 0.37815536637E+01
 0.35079055716E+01 0.33673145137E+01 0.33672962542E+01 0.35078810147E+01 0.37815617683E+01
 0.41655087014E+01 0.46145163924E+01 0.50646454512E+01 0.54291529594E+01 0.56310602898E+01
 0.56865247263E+01 0.56780510092E+01 0.56779624337E+01 0.56863583873E+01 0.56309912454E+01
 0.48288067194E+01 0.44969065303E+01 0.41464030166E+01 0.38259088799E+01 0.35758001084E+01
 0.34198612277E+01 0.33672962542E+01 0.34199117474E+01 0.35758618107E+01 0.38258920820E+01
 0.41462415553E+01 0.44966764889E+01 0.48286928393E+01 0.51000239776E+01 0.52791781422E+01
 0.53670077194E+01 0.53910799987E+01 0.53667932401E+01 0.52789095775E+01 0.50999075900E+01
 0.43335151906E+01 0.41130726385E+01 0.38948256738E+01 0.37085067192E+01 0.35758825873E+01
 0.35078928596E+01 0.35078810147E+01 0.35758618107E+01 0.37084973447E+01 0.38948228964E+01
 0.41130569897E+01 0.43334889445E+01 0.45270719196E+01 0.46743543784E+01 0.47689935366E+01
 0.48140169039E+01 0.48140050904E+01 0.47689697444E+01 0.46743422256E+01 0.45270846773E+01
 0.40637815520E+01 0.39784654363E+01 0.38947462307E+01 0.38259797924E+01 0.37816785338E+01
 0.37664570239E+01 0.37815617683E+01 0.38258920820E+01 0.38948228964E+01 0.39786734082E+01
 0.40639381510E+01 0.41377245645E+01 0.41923657039E+01 0.42268738637E+01 0.42447289579E+01
 0.42500970417E+01 0.42447742345E+01 0.42269983761E+01 0.41925134388E+01 0.41377498785E+01
 0.40639396284E+01 0.41130677196E+01 0.41462388919E+01 0.41654955220E+01 0.41740766158E+01
 0.41740839877E+01 0.41655087014E+01 0.41462415553E+01 0.41130569897E+01 0.40639381510E+01
 0.40010178371E+01 0.39319227985E+01 0.38678513237E+01 0.38194772851E+01 0.37938079541E+01
 0.37938161158E+01 0.38194806312E+01 0.38678224868E+01 0.39318746230E+01 0.40009875745E+01
 0.43337350436E+01 0.44968478577E+01 0.46144782939E+01 0.46836953798E+01 0.47063833453E+01
 0.46838161906E+01 0.46145163924E+01 0.44966764889E+01 0.43334889445E+01 0.41377245645E+01
 0.39319227985E+01 0.37431119273E+01 0.35949035587E+01 0.35020741594E+01 0.34707299574E+01
 0.35020998835E+01 0.35948331987E+01 0.37429180899E+01 0.39317756909E+01 0.41378026823E+01
 0.48287341677E+01 0.50646904671E+01 0.52161459551E+01 0.52854044289E+01 0.52853980240E+01
 0.52161211113E+01 0.50646454512E+01 0.48286928393E+01 0.45270719196E+01 0.41923657039E+01
 0.38678513237E+01 0.35949035587E+01 0.34023407713E+01 0.33040421354E+01 0.33040480214E+01
 0.34023519575E+01 0.35949050442E+01 0.38678375321E+01 0.41923535559E+01 0.45270844999E+01
 0.54289920816E+01 0.56156579961E+01 0.56870931897E+01 0.57013480981E+01 0.56869935097E+01
 0.56156466691E+01 0.54291529594E+01 0.51000239776E+01 0.46743543784E+01 0.42268738637E+01
 0.38194772851E+01 0.35020741594E+01 0.33040421354E+01 0.32371604639E+01 0.33039912920E+01
 0.35020782438E+01 0.38196004025E+01 0.42270170880E+01 0.46743461247E+01 0.50998475593E+01
 0.57512012614E+01 0.57005068032E+01 0.56190609527E+01 0.56189875292E+01 0.57003712911E+01
 0.57511551410E+01 0.56310602898E+01 0.52791781422E+01 0.47689935366E+01 0.42447289579E+01
 0.37938079541E+01 0.34707299574E+01 0.33040480214E+01 0.33039912920E+01 0.34706351916E+01
 0.37937926235E+01 0.42447807605E+01 0.47689971188E+01 0.52790889670E+01 0.56309806612E+01
 0.53192821288E+01 0.49479787256E+01 0.47878044740E+01 0.49477909679E+01 0.53190127650E+01
 0.56452189416E+01 0.56865247263E+01 0.53670077194E+01 0.48140169039E+01 0.42500970417E+01
 0.37938161158E+01 0.35020998835E+01 0.34023519575E+01 0.35020782438E+01 0.37937926235E+01
 0.42500381961E+01 0.48138763147E+01 0.53668480091E+01 0.56865010139E+01 0.56453965019E+01
 0.39170074667E+01 0.33409965334E+01 0.33410030893E+01 0.39169989001E+01 0.47649510382E+01
 0.54559738633E+01 0.56780510092E+01 0.53910799987E+01 0.48140050904E+01 0.42447742345E+01
 0.38194806312E+01 0.35948331987E+01 0.35949050442E+01 0.38196004025E+01 0.42447807605E+01
 0.48138763147E+01 0.53909472965E+01 0.56780287391E+01 0.54560389281E+01 0.47650081692E+01
 0.17921586634E+01 0.13194945005E+01 0.17923630468E+01 0.29887904358E+01 0.43681811282E+01
 0.53663974479E+01 0.56779624337E+01 0.53667932401E+01 0.47689697444E+01 0.42269983761E+01
 0.38678224868E+01 0.37429180899E+01 0.38678375321E+01 0.42270170880E+01 0.47689971188E+01
 0.53668480091E+01 0.56780287391E+01 0.53663952207E+01 0.43680355143E+01 0.29885360143E+01
 -.36934722214E+00 -.36934423000E+00 0.79324639246E+00 0.26167486024E+01 0.43682383377E+01
 0.54560996158E+01 0.56863583873E+01 0.52789095775E+01 0.46743422256E+01 0.41925134388E+01
 0.39318746230E+01 0.39317756909E+01 0.41923535559E+01 0.46743461247E+01 0.52790889670E+01
 0.56865010139E+01 0.54560389281E+01 0.43680355143E+01 0.26165796061E+01 0.79318845262E+00
 -.17333112398E+01 -.10266493652E+01 0.79342090135E+00 0.29887071023E+01 0.47650267836E+01
 0.56453435727E+01 0.56309912454E+01 0.50999075900E+01 0.45270846773E+01 0.41377498785E+01
 0.40009875745E+01 0.41378026823E+01 0.45270844999E+01 0.50998475593E+01 0.56309806612E+01
 0.56453965019E+01 0.47650081692E+01 0.29885360143E+01 0.79318845262E+00 -.10268007199E+01
 0.23792472805E+00 0.17923956012E+01 0.36378674172E+01 0.50767706041E+01 0.57059280181E+01
 0.55556790191E+01 0.49884507639E+01 0.44266514651E+01 0.40490154394E+01 0.39168469259E+01
 0.40489738484E+01 0.44266160056E+01 0.49884636766E+01 0.55557031318E+01 0.57058771303E+01
 0.50766629128E+01 0.36378689208E+01 0.17925992825E+01 0.23815586928E+00 -.36932764714E+00
 0.17923956012E+01 0.33412385825E+01 0.47880863125E+01 0.56191456250E+01 0.56869394436E+01
 0.52160059634E+01 0.46145776227E+01 0.41464754530E+01 0.38948490233E+01 0.38947139752E+01
 0.41462431650E+01 0.46145317988E+01 0.52161692689E+01 0.56870676237E+01 0.56190627888E+01
 0.47878843762E+01 0.33411169849E+01 0.17924071038E+01 0.79311150538E+00 0.79308121461E+00
 0.36378674172E+01 0.47880863125E+01 0.55691072285E+01 0.57265965712E+01 0.53438142467E+01
 0.47427015333E+01 0.42170643597E+01 0.38713274614E+01 0.37515041764E+01 0.38712754756E+01
 0.42170159287E+01 0.47426958908E+01 0.53438265985E+01 0.57265714745E+01 0.55690340755E+01
 0.47880075159E+01 0.36378251200E+01 0.26164374447E+01 0.22091510028E+01 0.26164447190E+01
 0.50767706041E+01 0.56191456250E+01 0.57265965712E+01 0.53835143173E+01 0.48069455624E+01
 0.42592758707E+01 0.38524423868E+01 0.36382741393E+01 0.36383416350E+01 0.38525544332E+01
 0.42592966352E+01 0.48068651606E+01 0.53834007813E+01 0.57264867884E+01 0.56190878520E+01
 0.50768427910E+01 0.43681533873E+01 0.38761753167E+01 0.38760806544E+01 0.43679816273E+01
 0.57059280181E+01 0.56869394436E+01 0.53438142467E+01 0.48069455624E+01 0.42733009901E+01
 0.38423938642E+01 0.35673754487E+01 0.34734454226E+01 0.35673889006E+01 0.38423956476E+01
 0.42732861227E+01 0.48069341766E+01 0.53438134295E+01 0.56869271101E+01 0.57058921618E+01
 0.54560268946E+01 0.51477299264E+01 0.50119505506E+01 0.51477540297E+01 0.54560677040E+01
 0.55556790191E+01 0.52160059634E+01 0.47427015333E+01 0.42592758707E+01 0.38423938642E+01
 0.35435232840E+01 0.33893760880E+01 0.33893259696E+01 0.35434206893E+01 0.38423284929E+01
 0.42593040415E+01 0.47428169355E+01 0.52161359456E+01 0.55556928605E+01 0.56863471319E+01
 0.56565367938E+01 0.55909260001E+01 0.55910677737E+01 0.56568275262E+01 0.56865378950E+01
 0.49884507639E+01 0.46145776227E+01 0.42170643597E+01 0.38524423868E+01 0.35673754487E+01
 0.33893760880E+01 0.33293021818E+01 0.33893849954E+01 0.35673772809E+01 0.38524247617E+01
 0.42170323534E+01 0.46145449928E+01 0.49884179992E+01 0.52790528000E+01 0.54446492229E+01
 0.55076636147E+01 0.55200821216E+01 0.55076951613E+01 0.54446921770E+01 0.52790908030E+01
 0.44266514651E+01 0.41464754530E+01 0.38713274614E+01 0.36382741393E+01 0.34734454226E+01
 0.33893259696E+01 0.33893849954E+01 0.34735666675E+01 0.36383323427E+01 0.38712333100E+01
 0.41462656753E+01 0.44264729913E+01 0.46743109486E+01 0.48636245212E+01 0.49837584886E+01
 0.50381045658E+01 0.50380325735E+01 0.49835941468E+01 0.48634959802E+01 0.46743335889E+01
 0.40490154394E+01 0.38948490233E+01 0.37515041764E+01 0.36383416350E+01 0.35673889006E+01
 0.35434206893E+01 0.35673772809E+01 0.36383323427E+01 0.37514994496E+01 0.38948366325E+01
 0.40489912175E+01 0.41923322769E+01 0.43080400637E+01 0.43884208067E+01 0.44339643611E+01
 0.44484869186E+01 0.44339710252E+01 0.43884297635E+01 0.43080538568E+01 0.41923556826E+01
 0.39168469259E+01 0.38947139752E+01 0.38712754756E+01 0.38525544332E+01 0.38423956476E+01
 0.38423284929E+01 0.38524247617E+01 0.38712333100E+01 0.38948366325E+01 0.39170427965E+01
 0.39318820199E+01 0.39368029311E+01 0.39338066444E+01 0.39277105864E+01 0.39232939155E+01
 0.39233238659E+01 0.39278131249E+01 0.39339543095E+01 0.39368778678E+01 0.39317883152E+01
 0.40489738484E+01 0.41462431650E+01 0.42170159287E+01 0.42592966352E+01 0.42732861227E+01
 0.42593040415E+01 0.42170323534E+01 0.41462656753E+01 0.40489912175E+01 0.39318820199E+01
 0.38073133963E+01 0.36912804783E+01 0.35988683606E+01 0.35403300496E+01 0.35204242046E+01
 0.35403253623E+01 0.35988673766E+01 0.36912883266E+01 0.38073218409E+01 0.39318788960E+01
 0.44266160056E+01 0.46145317988E+01 0.47426958908E+01 0.48068651606E+01 0.48069341766E+01
 0.47428169355E+01 0.46145449928E+01 0.44264729913E+01 0.41923322769E+01 0.39368029311E+01
 0.36912804783E+01 0.34855956556E+01 0.33406972991E+01 0.32667719651E+01 0.32667709751E+01
 0.33406593071E+01 0.34854956918E+01 0.36911994833E+01 0.39368566345E+01 0.41925081933E+01
 0.49884636766E+01 0.52161692689E+01 0.53438265985E+01 0.53834007813E+01 0.53438134295E+01
 0.52161359456E+01 0.49884179992E+01 0.46743109486E+01 0.43080400637E+01 0.39338066444E+01
 0.35988683606E+01 0.33406972991E+01 0.31806898420E+01 0.31268525701E+01 0.31806915720E+01
 0.33407041509E+01 0.35988763280E+01 0.39338131302E+01 0.43080538568E+01 0.46743443880E+01
 0.55557031318E+01 0.56870676237E+01 0.57265714745E+01 0.57264867884E+01 0.56869271101E+01
 0.55556928605E+01 0.52790528000E+01 0.48636245212E+01 0.43884208067E+01 0.39277105864E+01
 0.35403300496E+01 0.32667719651E+01 0.31268525701E+01 0.31268291062E+01 0.32667505160E+01
 0.35403851913E+01 0.39278182307E+01 0.43884563205E+01 0.48635254274E+01 0.52789271536E+01
 0.57058771303E+01 0.56190627888E+01 0.55690340755E+01 0.56190878520E+01 0.57058921618E+01
 0.56863471319E+01 0.54446492229E+01 0.49837584886E+01 0.44339643611E+01 0.39232939155E+01
 0.35204242046E+01 0.32667709751E+01 0.31806915720E+01 0.32667505160E+01 0.35203912321E+01
 0.39232689692E+01 0.44339714009E+01 0.49838026598E+01 0.54447008874E+01 0.56863708076E+01
 0.50766629128E+01 0.47878843762E+01 0.47880075159E+01 0.50768427910E+01 0.54560268946E+01
 0.56565367938E+01 0.55076636147E+01 0.50381045658E+01 0.44484869186E+01 0.39233238659E+01
 0.35403253623E+01 0.33406593071E+01 0.33407041509E+01 0.35403851913E+01 0.39232689692E+01
 0.44483289592E+01 0.50380381049E+01 0.55078318294E+01 0.56567923075E+01 0.54560790716E+01
 0.36378689208E+01 0.33411169849E+01 0.36378251200E+01 0.43681533873E+01 0.51477299264E+01
 0.55909260001E+01 0.55200821216E+01 0.50380325735E+01 0.44339710252E+01 0.39278131249E+01
 0.35988673766E+01 0.34854956918E+01 0.35988763280E+01 0.39278182307E+01 0.44339714009E+01
 0.50380381049E+01 0.55200928258E+01 0.55909381563E+01 0.51477540297E+01 0.43682005593E+01
 0.17925992825E+01 0.17924071038E+01 0.26164374447E+01 0.38761753167E+01 0.50119505506E+01
 0.55910677737E+01 0.55076951613E+01 0.49835941468E+01 0.43884297635E+01 0.39339543095E+01
 0.36912883266E+01 0.36911994833E+01 0.39338131302E+01 0.43884563205E+01 0.49838026598E+01
 0.55078318294E+01 0.55909381563E+01 0.50117356251E+01 0.38762272040E+01 0.26167597708E+01
 0.23815586928E+00 0.79311150538E+00 0.22091510028E+01 0.38760806544E+01 0.51477540297E+01
 0.56568275262E+01 0.54446921770E+01 0.48634959802E+01 0.43080538568E+01 0.39368778678E+01
 0.38073218409E+01 0.39368566345E+01 0.43080538568E+01 0.48635254274E+01 0.54447008874E+01
 0.56567923075E+01 0.51477540297E+01 0.38762272040E+01 0.22094302726E+01 0.79334395411E+00
 -.36932764714E+00 0.79308121461E+00 0.26164447190E+01 0.43679816273E+01 0.54560677040E+01
 0.56865378950E+01 0.52790908030E+01 0.46743335889E+01 0.41923556826E+01 0.39317883152E+01
 0.39318788960E+01 0.41925081933E+01 0.46743443880E+01 0.52789271536E+01 0.56863708076E+01
 0.54560790716E+01 0.43682005593E+01 0.26167597708E+01 0.79334395411E+00 -.36922696390E+00
 0.26323006576E+01 0.39166572525E+01 0.50764752338E+01 0.56729136130E+01 0.55991126226E+01
 0.50791376148E+01 0.44854562807E+01 0.40315446980E+01 0.37891325004E+01 0.37890620358E+01
 0.40314252171E+01 0.44854368826E+01 0.50792146052E+01 0.55991298065E+01 0.56728250865E+01
 0.50765023178E+01 0.39170298132E+01 0.26328650205E+01 0.17927116830E+01 0.17924344587E+01
 0.39166572525E+01 0.49475413738E+01 0.56189078944E+01 0.57013982521E+01 0.52855129365E+01
 0.46837781065E+01 0.41654938109E+01 0.38259389834E+01 0.37085210768E+01 0.38259692162E+01
 0.41654961267E+01 0.46837158373E+01 0.52854175961E+01 0.57013473905E+01 0.56189985007E+01
 0.49478377325E+01 0.39170880489E+01 0.29888928480E+01 0.26167737739E+01 0.29885624615E+01
 0.50764752338E+01 0.56189078944E+01 0.57265597371E+01 0.53835820206E+01 0.48069627050E+01
 0.42592360552E+01 0.38524296930E+01 0.36383008711E+01 0.36383540434E+01 0.38525406410E+01
 0.42592917576E+01 0.48068795962E+01 0.53834116086E+01 0.57264800708E+01 0.56190750444E+01
 0.50768634871E+01 0.43682617000E+01 0.38763574633E+01 0.38761903700E+01 0.43678637932E+01
 0.56729136130E+01 0.57013982521E+01 0.53835820206E+01 0.48484769719E+01 0.43071158122E+01
 0.38685433877E+01 0.35881082586E+01 0.34922216495E+01 0.35881089634E+01 0.38686234536E+01
 0.43072607323E+01 0.48485125359E+01 0.53833885762E+01 0.57011531190E+01 0.56729721081E+01
 0.53666785566E+01 0.50121424913E+01 0.48582845941E+01 0.50116860996E+01 0.53662284986E+01
 0.55991126226E+01 0.52855129365E+01 0.48069627050E+01 0.43071158122E+01 0.38739462218E+01
 0.35624543429E+01 0.34014880069E+01 0.34014409966E+01 0.35624009914E+01 0.38740147266E+01
 0.43072673373E+01 0.48070088257E+01 0.52853739037E+01 0.55989559136E+01 0.56780254877E+01
 0.55910841162E+01 0.54880051891E+01 0.54878821539E+01 0.55908701793E+01 0.56779828205E+01
 0.50791376148E+01 0.46837781065E+01 0.42592360552E+01 0.38685433877E+01 0.35624543429E+01
 0.33709871841E+01 0.33062581292E+01 0.33709242636E+01 0.35624041002E+01 0.38685598233E+01
 0.42593098528E+01 0.46838718307E+01 0.50791976112E+01 0.53668244514E+01 0.55076139647E+01
 0.55426553825E+01 0.55431222971E+01 0.55428054761E+01 0.55077682776E+01 0.53668652131E+01
 0.44854562807E+01 0.41654938109E+01 0.38524296930E+01 0.35881082586E+01 0.34014880069E+01
 0.33062581292E+01 0.33062569073E+01 0.34014855247E+01 0.35881091993E+01 0.38524421025E+01
 0.41655250661E+01 0.44854938265E+01 0.47689856761E+01 0.49837196717E+01 0.51119779281E+01
 0.51658625133E+01 0.51659128480E+01 0.51120814731E+01 0.49837899660E+01 0.47689862611E+01
 0.40315446980E+01 0.38259389834E+01 0.36383008711E+01 0.34922216495E+01 0.34014409966E+01
 0.33709242636E+01 0.34014855247E+01 0.34922837839E+01 0.36383373206E+01 0.38259145162E+01
 0.40314632647E+01 0.42268977946E+01 0.43884607582E+01 0.45032810138E+01 0.45695347408E+01
 0.45908490792E+01 0.45694683421E+01 0.45032223819E+01 0.43884767975E+01 0.42269798483E+01
 0.37891325004E+01 0.37085210768E+01 0.36383540434E+01 0.35881089634E+01 0.35624009914E+01
 0.35624041002E+01 0.35881091993E+01 0.36383373206E+01 0.37084946817E+01 0.37891267969E+01
 0.38678542119E+01 0.39338446191E+01 0.39814586086E+01 0.40105689682E+01 0.40239460103E+01
 0.40239653335E+01 0.40105984349E+01 0.39814528574E+01 0.39338043515E+01 0.38678229972E+01
 0.37890620358E+01 0.38259692162E+01 0.38525406410E+01 0.38686234536E+01 0.38740147266E+01
 0.38685598233E+01 0.38524421025E+01 0.38259145162E+01 0.37891267969E+01 0.37430863541E+01
 0.36912882254E+01 0.36401698218E+01 0.35974151388E+01 0.35693883098E+01 0.35597270140E+01
 0.35694904458E+01 0.35975270245E+01 0.36401772848E+01 0.36911640955E+01 0.37429285755E+01
 0.40314252171E+01 0.41654961267E+01 0.42592917576E+01 0.43072607323E+01 0.43072673373E+01
 0.42593098528E+01 0.41655250661E+01 0.40314632647E+01 0.38678542119E+01 0.36912882254E+01
 0.35222236154E+01 0.33803927229E+01 0.32801412116E+01 0.32288319899E+01 0.32288334154E+01
 0.32801532758E+01 0.33804204579E+01 0.35222476667E+01 0.36912834490E+01 0.38678218822E+01
 0.44854368826E+01 0.46837158373E+01 0.48068795962E+01 0.48485125359E+01 0.48070088257E+01
 0.46838718307E+01 0.44854938265E+01 0.42268977946E+01 0.39338446191E+01 0.36401698218E+01
 0.33803927229E+01 0.31814462439E+01 0.30585544334E+01 0.30172585188E+01 0.30585252051E+01
 0.31813977330E+01 0.33803755342E+01 0.36402397908E+01 0.39339764702E+01 0.42269780091E+01
 0.50792146052E+01 0.52854175961E+01 0.53834116086E+01 0.53833885762E+01 0.52853739037E+01
 0.50791976112E+01 0.47689856761E+01 0.43884607582E+01 0.39814586086E+01 0.35974151388E+01
 0.32801412116E+01 0.30585544334E+01 0.29459300871E+01 0.29459263615E+01 0.30585585781E+01
 0.32801683308E+01 0.35974433676E+01 0.39814514896E+01 0.43884194037E+01 0.47689567547E+01
 0.55991298065E+01 0.57013473905E+01 0.57264800708E+01 0.57011531190E+01 0.55989559136E+01
 0.53668244514E+01 0.49837196717E+01 0.45032810138E+01 0.40105689682E+01 0.35693883098E+01
 0.32288319899E+01 0.30172585188E+01 0.29459263615E+01 0.30172609126E+01 0.32288806204E+01
 0.35694693846E+01 0.40105789271E+01 0.45031528719E+01 0.49835518536E+01 0.53668010838E+01
 0.56728250865E+01 0.56189985007E+01 0.56190750444E+01 0.56729721081E+01 0.56780254877E+01
 0.55076139647E+01 0.51119779281E+01 0.45695347408E+01 0.40239460103E+01 0.35597270140E+01
 0.32288334154E+01 0.30585252051E+01 0.30585585781E+01 0.32288806204E+01 0.35597169081E+01
 0.40239072405E+01 0.45695622153E+01 0.51120815869E+01 0.55076823537E+01 0.56779620464E+01
 0.50765023178E+01 0.49478377325E+01 0.50768634871E+01 0.53666785566E+01 0.55910841162E+01
 0.55426553825E+01 0.51658625133E+01 0.45908490792E+01 0.40239653335E+01 0.35694904458E+01
 0.32801532758E+01 0.31813977330E+01 0.32801683308E+01 0.35694693846E+01 0.40239072405E+01
 0.45908660130E+01 0.51660529700E+01 0.55429010074E+01 0.55910940544E+01 0.53663506486E+01
 0.39170298132E+01 0.39170880489E+01 0.43682617000E+01 0.50121424913E+01 0.54880051891E+01
 0.55431222971E+01 0.51659128480E+01 0.45694683421E+01 0.40105984349E+01 0.35975270245E+01
 0.33804204579E+01 0.33803755342E+01 0.35974433676E+01 0.40105789271E+01 0.45695622153E+01
 0.51660529700E+01 0.55431838434E+01 0.54879253841E+01 0.50119737436E+01 0.43681105938E+01
 0.26328650205E+01 0.29888928480E+01 0.38763574633E+01 0.48582845941E+01 0.54878821539E+01
 0.55428054761E+01 0.51120814731E+01 0.45032223819E+01 0.39814528574E+01 0.36401772848E+01
 0.35222476667E+01 0.36402397908E+01 0.39814514896E+01 0.45031528719E+01 0.51120815869E+01
 0.55429010074E+01 0.54879253841E+01 0.48581887213E+01 0.38762109137E+01 0.29888062172E+01
 0.17927116830E+01 0.26167737739E+01 0.38761903700E+01 0.50116860996E+01 0.55908701793E+01
 0.55077682776E+01 0.49837899660E+01 0.43884767975E+01 0.39338043515E+01 0.36911640955E+01
 0.36912834490E+01 0.39339764702E+01 0.43884194037E+01 0.49835518536E+01 0.55076823537E+01
 0.55910940544E+01 0.50119737436E+01 0.38762109137E+01 0.26165471602E+01 0.17925703240E+01
 0.17924344587E+01 0.29885624615E+01 0.43678637932E+01 0.53662284986E+01 0.56779828205E+01
 0.53668652131E+01 0.47689862611E+01 0.42269798483E+01 0.38678229972E+01 0.37429285755E+01
 0.38678218822E+01 0.42269780091E+01 0.47689567547E+01 0.53668010838E+01 0.56779620464E+01
 0.53663506486E+01 0.43681105938E+01 0.29888062172E+01 0.17925703240E+01 0.13198433905E+01
 0.46007507566E+01 0.53191392270E+01 0.57058698832E+01 0.55990211378E+01 0.51074980089E+01
 0.45133004363E+01 0.40179960631E+01 0.36967531463E+01 0.35861778354E+01 0.36967647572E+01
 0.40179973438E+01 0.45133028772E+01 0.51075491972E+01 0.55991192660E+01 0.57059064588E+01
 0.53189933974E+01 0.46004492659E+01 0.39169383283E+01 0.36378107859E+01 0.39171917771E+01
 0.53191392270E+01 0.57002623063E+01 0.56868116582E+01 0.52853815415E+01 0.47065122882E+01
 0.41741185886E+01 0.37815513133E+01 0.35757735160E+01 0.35758699379E+01 0.37816836665E+01