       N       E                     dE             d eps       ncg     rms          rms(c)
DAV:   1    -0.393308789150E+01   -0.39331E+01   -0.12446E+03   762   0.283E+02
DAV:   2    -0.551335300925E+01   -0.15803E+01   -0.14884E+01   942   0.264E+01
DAV:   3    -0.552248467574E+01   -0.91317E-02   -0.91251E-02   762   0.209E+00
DAV:   4    -0.552249315162E+01   -0.84759E-05   -0.84760E-05   984   0.672E-02
DAV:   5    -0.552249315408E+01   -0.24631E-08   -0.24827E-08   714   0.743E-04    0.776E-01
DAV:   6    -0.550663007231E+01    0.15863E-01   -0.50606E-03   768   0.404E-01    0.458E-01
DAV:   7    -0.549803224040E+01    0.85978E-02   -0.10006E-02   702   0.568E-01    0.266E-02
DAV:   8    -0.549799979631E+01    0.32444E-04   -0.30911E-05   690   0.509E-02
   1 F= -.54979998E+01 E0= -.54966879E+01  d E =-.262383E-02
