diamond Si                              
   5.30000000000000     
     0.000000    0.490819    0.490819
     0.490819    0.000000    0.490819
     0.490819    0.490819    0.000000
   Si
     2
Direct
  0.875000  0.875000  0.875000
  0.125000  0.125000  0.125000
 
   28   28   28
 0.22336866841E+02 0.22209701015E+02 0.21747740735E+02 0.20675017011E+02 0.18860198065E+02
 0.16649018967E+02 0.14794143088E+02 0.14067127290E+02 0.14794125460E+02 0.16648922124E+02
 0.18859961223E+02 0.20674710869E+02 0.21747588890E+02 0.22209857469E+02 0.22337185952E+02
 0.22209857469E+02 0.21747588890E+02 0.20674710869E+02 0.18859961223E+02 0.16648922124E+02
 0.14794125460E+02 0.14067127290E+02 0.14794143088E+02 0.16649018967E+02 0.18860198065E+02
 0.20675017011E+02 0.21747740735E+02 0.22209701015E+02 0.22209701015E+02 0.22336145763E+02
 0.21685456542E+02 0.19895867957E+02 0.17160257581E+02 0.14313304191E+02 0.12485710166E+02
 0.12485654073E+02 0.14313232636E+02 0.17160278920E+02 0.19895878853E+02 0.21685299482E+02
 0.22335931980E+02 0.22209737378E+02 0.21735214188E+02 0.21038912307E+02 0.20100968605E+02
 0.18820410747E+02 0.17225646335E+02 0.15671629953E+02 0.14695232618E+02 0.14695188679E+02
 0.15671694464E+02 0.17226063082E+02 0.18820983875E+02 0.20101218700E+02 0.21038688453E+02
 0.21734886080E+02 0.21747740735E+02 0.21685456542E+02 0.20250216416E+02 0.17356818930E+02
 0.13715491153E+02 0.10646914541E+02 0.94445367863E+01 0.10646543066E+02 0.13715141781E+02
 0.17356787603E+02 0.20250395289E+02 0.21685582666E+02 0.21747753411E+02 0.21038679925E+02
 0.20053959088E+02 0.18934903373E+02 0.17710286264E+02 0.16409397188E+02 0.15142462881E+02
 0.14176458639E+02 0.13810803920E+02 0.14176288866E+02 0.15142442059E+02 0.16409711272E+02
 0.17710734369E+02 0.18935181462E+02 0.20054026269E+02 0.21038688453E+02 0.20675017011E+02
 0.19895867957E+02 0.17356818930E+02 0.13454152021E+02 0.94269719757E+01 0.68593323866E+01
 0.68590255177E+01 0.94263618491E+01 0.13453803066E+02 0.17356952959E+02 0.19896262716E+02
 0.20675326227E+02 0.20101212515E+02 0.18934818332E+02 0.17615502115E+02 0.16276524364E+02
 0.14976668101E+02 0.13788183545E+02 0.12843925131E+02 0.12309933368E+02 0.12309869733E+02
 0.12843738655E+02 0.13787978891E+02 0.14976682363E+02 0.16276886928E+02 0.17616031363E+02
 0.18935181462E+02 0.20101218700E+02 0.18860198065E+02 0.17160257581E+02 0.13715491153E+02
 0.94269719757E+01 0.58457996640E+01 0.44492795968E+01 0.58453649115E+01 0.94266353803E+01
 0.13715643896E+02 0.17160701692E+02 0.18860461487E+02 0.18820894619E+02 0.17710503037E+02
 0.16276732072E+02 0.14817759551E+02 0.13451345334E+02 0.12244240179E+02 0.11268562858E+02
 0.10620412447E+02 0.10391463422E+02 0.10620285198E+02 0.11268462285E+02 0.12244257037E+02
 0.13451418961E+02 0.14817841087E+02 0.16276886928E+02 0.17710734369E+02 0.18820983875E+02
 0.16649018967E+02 0.14313304191E+02 0.10646914541E+02 0.68593323866E+01 0.44492795968E+01
 0.44491101237E+01 0.68591170682E+01 0.10647115525E+02 0.14313873337E+02 0.16649411164E+02
 0.17225971955E+02 0.16409486277E+02 0.14976791610E+02 0.13451746986E+02 0.12015616289E+02
 0.10761197518E+02 0.97442494565E+01 0.90170142760E+01 0.86341947425E+01 0.86340404077E+01
 0.90168345117E+01 0.97443978551E+01 0.10761464312E+02 0.12015554462E+02 0.13451418961E+02
 0.14976682363E+02 0.16409711272E+02 0.17226063082E+02 0.14794143088E+02 0.12485710166E+02
 0.94445367863E+01 0.68590255177E+01 0.58453649115E+01 0.68591170682E+01 0.94447784008E+01
 0.12486102957E+02 0.14794561148E+02 0.15671972433E+02 0.15142524930E+02 0.13787957903E+02
 0.12244262053E+02 0.10761541749E+02 0.94572368987E+01 0.83923148838E+01 0.76010384525E+01
 0.71107412825E+01 0.69441802303E+01 0.71107561503E+01 0.76010327172E+01 0.83922546476E+01
 0.94571357187E+01 0.10761464312E+02 0.12244257037E+02 0.13787978891E+02 0.15142442059E+02
 0.15671694464E+02 0.14067127290E+02 0.12485654073E+02 0.10646543066E+02 0.94263618491E+01
 0.94266353803E+01 0.10647115525E+02 0.12486102957E+02 0.14067358998E+02 0.14695414372E+02
 0.14176565838E+02 0.12843829846E+02 0.11268257247E+02 0.97442039143E+01 0.83924098326E+01
 0.72785368292E+01 0.64307249845E+01 0.58599453638E+01 0.55725935115E+01 0.55727842588E+01
 0.58602212682E+01 0.64306494289E+01 0.72781901894E+01 0.83922546476E+01 0.97443978551E+01
 0.11268462285E+02 0.12843738655E+02 0.14176288866E+02 0.14695188679E+02 0.14794125460E+02
 0.14313232636E+02 0.13715141781E+02 0.13453803066E+02 0.13715643896E+02 0.14313873337E+02
 0.14794561148E+02 0.14695414372E+02 0.13810869389E+02 0.12309908869E+02 0.10620292605E+02
 0.90168044245E+01 0.76009849936E+01 0.64305806469E+01 0.55272773837E+01 0.48908445698E+01
 0.45134241705E+01 0.43884296044E+01 0.45135327120E+01 0.48909921870E+01 0.55273924653E+01
 0.64306494289E+01 0.76010327172E+01 0.90168345117E+01 0.10620285198E+02 0.12309869733E+02
 0.13810803920E+02 0.14695232618E+02 0.16648922124E+02 0.17160278920E+02 0.17356787603E+02
 0.17356952959E+02 0.17160701692E+02 0.16649411164E+02 0.15671972433E+02 0.14176565838E+02
 0.12309908869E+02 0.10391474345E+02 0.86341011342E+01 0.71106999929E+01 0.58599412783E+01
 0.48906403158E+01 0.41910433289E+01 0.37407655643E+01 0.35209708054E+01 0.35209043134E+01
 0.37407082697E+01 0.41912095266E+01 0.48909921870E+01 0.58602212682E+01 0.71107561503E+01
 0.86340404077E+01 0.10391463422E+02 0.12309933368E+02 0.14176458639E+02 0.15671629953E+02
 0.18859961223E+02 0.19895878853E+02 0.20250395289E+02 0.19896262716E+02 0.18860461487E+02
 0.17225971955E+02 0.15142524930E+02 0.12843829846E+02 0.10620292605E+02 0.86341011342E+01
 0.69441041680E+01 0.55727225698E+01 0.45134927836E+01 0.37406835618E+01 0.32209523869E+01
 0.29234414742E+01 0.28268127591E+01 0.29234609245E+01 0.32209760398E+01 0.37407082697E+01
 0.45135327120E+01 0.55727842588E+01 0.69441802303E+01 0.86341947425E+01 0.10620412447E+02
 0.12843925131E+02 0.15142462881E+02 0.17225646335E+02 0.20674710869E+02 0.21685299482E+02
 0.21685582666E+02 0.20675326227E+02 0.18820894619E+02 0.16409486277E+02 0.13787957903E+02
 0.11268257247E+02 0.90168044245E+01 0.71106999929E+01 0.55727225698E+01 0.43886548359E+01
 0.35210948254E+01 0.29235230894E+01 0.25524814650E+01 0.23755536792E+01 0.23755863157E+01
 0.25525202928E+01 0.29234609245E+01 0.35209043134E+01 0.43884296044E+01 0.55725935115E+01
 0.71107412825E+01 0.90170142760E+01 0.11268562858E+02 0.13788183545E+02 0.16409397188E+02
 0.18820410747E+02 0.21747588890E+02 0.22335931980E+02 0.21747753411E+02 0.20101212515E+02
 0.17710503037E+02 0.14976791610E+02 0.12244262053E+02 0.97442039143E+01 0.76009849936E+01
 0.58599412783E+01 0.45134927836E+01 0.35210948254E+01 0.28269544130E+01 0.23757079297E+01
 0.21232857261E+01 0.20422023145E+01 0.21232151182E+01 0.23755863157E+01 0.28268127591E+01
 0.35209708054E+01 0.45134241705E+01 0.58599453638E+01 0.76010384525E+01 0.97442494565E+01
 0.12244240179E+02 0.14976668101E+02 0.17710286264E+02 0.20100968605E+02 0.22209857469E+02
 0.22209737378E+02 0.21038679925E+02 0.18934818332E+02 0.16276732072E+02 0.13451746986E+02
 0.10761541749E+02 0.83924098326E+01 0.64305806469E+01 0.48906403158E+01 0.37406835618E+01
 0.29235230894E+01 0.23757079297E+01 0.20423225653E+01 0.18851520039E+01 0.18851103903E+01
 0.20422023145E+01 0.23755536792E+01 0.29234414742E+01 0.37407655643E+01 0.48908445698E+01
 0.64307249845E+01 0.83923148838E+01 0.10761197518E+02 0.13451345334E+02 0.16276524364E+02
 0.18934903373E+02 0.21038912307E+02 0.22337185952E+02 0.21735214188E+02 0.20053959088E+02
 0.17615502115E+02 0.14817759551E+02 0.12015616289E+02 0.94572368987E+01 0.72785368292E+01
 0.55272773837E+01 0.41910433289E+01 0.32209523869E+01 0.25524814650E+01 0.21232857261E+01
 0.18851520039E+01 0.18089644172E+01 0.18851520039E+01 0.21232857261E+01 0.25524814650E+01
 0.32209523869E+01 0.41910433289E+01 0.55272773837E+01 0.72785368292E+01 0.94572368987E+01
 0.12015616289E+02 0.14817759551E+02 0.17615502115E+02 0.20053959088E+02 0.21735214188E+02
 0.22209857469E+02 0.21038912307E+02 0.18934903373E+02 0.16276524364E+02 0.13451345334E+02
 0.10761197518E+02 0.83923148838E+01 0.64307249845E+01 0.48908445698E+01 0.37407655643E+01
 0.29234414742E+01 0.23755536792E+01 0.20422023145E+01 0.18851103903E+01 0.18851520039E+01
 0.20423225653E+01 0.23757079297E+01 0.29235230894E+01 0.37406835618E+01 0.48906403158E+01
 0.64305806469E+01 0.83924098326E+01 0.10761541749E+02 0.13451746986E+02 0.16276732072E+02
 0.18934818332E+02 0.21038679925E+02 0.22209737378E+02 0.21747588890E+02 0.20100968605E+02
 0.17710286264E+02 0.14976668101E+02 0.12244240179E+02 0.97442494565E+01 0.76010384525E+01
 0.58599453638E+01 0.45134241705E+01 0.35209708054E+01 0.28268127591E+01 0.23755863157E+01
 0.21232151182E+01 0.20422023145E+01 0.21232857261E+01 0.23757079297E+01 0.28269544130E+01
 0.35210948254E+01 0.45134927836E+01 0.58599412783E+01 0.76009849936E+01 0.97442039143E+01
 0.12244262053E+02 0.14976791610E+02 0.17710503037E+02 0.20101212515E+02 0.21747753411E+02
 0.22335931980E+02 0.20674710869E+02 0.18820410747E+02 0.16409397188E+02 0.13788183545E+02
 0.11268562858E+02 0.90170142760E+01 0.71107412825E+01 0.55725935115E+01 0.43884296044E+01
 0.35209043134E+01 0.29234609245E+01 0.25525202928E+01 0.23755863157E+01 0.23755536792E+01
 0.25524814650E+01 0.29235230894E+01 0.35210948254E+01 0.43886548359E+01 0.55727225698E+01
 0.71106999929E+01 0.90168044245E+01 0.11268257247E+02 0.13787957903E+02 0.16409486277E+02
 0.18820894619E+02 0.20675326227E+02 0.21685582666E+02 0.21685299482E+02 0.18859961223E+02
 0.17225646335E+02 0.15142462881E+02 0.12843925131E+02 0.10620412447E+02 0.86341947425E+01
 0.69441802303E+01 0.55727842588E+01 0.45135327120E+01 0.37407082697E+01 0.32209760398E+01
 0.29234609245E+01 0.28268127591E+01 0.29234414742E+01 0.32209523869E+01 0.37406835618E+01
 0.45134927836E+01 0.55727225698E+01 0.69441041680E+01 0.86341011342E+01 0.10620292605E+02
 0.12843829846E+02 0.15142524930E+02 0.17225971955E+02 0.18860461487E+02 0.19896262716E+02
 0.20250395289E+02 0.19895878853E+02 0.16648922124E+02 0.15671629953E+02 0.14176458639E+02
 0.12309933368E+02 0.10391463422E+02 0.86340404077E+01 0.71107561503E+01 0.58602212682E+01
 0.48909921870E+01 0.41912095266E+01 0.37407082697E+01 0.35209043134E+01 0.35209708054E+01
 0.37407655643E+01 0.41910433289E+01 0.48906403158E+01 0.58599412783E+01 0.71106999929E+01
 0.86341011342E+01 0.10391474345E+02 0.12309908869E+02 0.14176565838E+02 0.15671972433E+02
 0.16649411164E+02 0.17160701692E+02 0.17356952959E+02 0.17356787603E+02 0.17160278920E+02
 0.14794125460E+02 0.14695232618E+02 0.13810803920E+02 0.12309869733E+02 0.10620285198E+02
 0.90168345117E+01 0.76010327172E+01 0.64306494289E+01 0.55273924653E+01 0.48909921870E+01
 0.45135327120E+01 0.43884296044E+01 0.45134241705E+01 0.48908445698E+01 0.55272773837E+01
 0.64305806469E+01 0.76009849936E+01 0.90168044245E+01 0.10620292605E+02 0.12309908869E+02
 0.13810869389E+02 0.14695414372E+02 0.14794561148E+02 0.14313873337E+02 0.13715643896E+02
 0.13453803066E+02 0.13715141781E+02 0.14313232636E+02 0.14067127290E+02 0.14695188679E+02
 0.14176288866E+02 0.12843738655E+02 0.11268462285E+02 0.97443978551E+01 0.83922546476E+01
 0.72781901894E+01 0.64306494289E+01 0.58602212682E+01 0.55727842588E+01 0.55725935115E+01
 0.58599453638E+01 0.64307249845E+01 0.72785368292E+01 0.83924098326E+01 0.97442039143E+01
 0.11268257247E+02 0.12843829846E+02 0.14176565838E+02 0.14695414372E+02 0.14067358998E+02
 0.12486102957E+02 0.10647115525E+02 0.94266353803E+01 0.94263618491E+01 0.10646543066E+02
 0.12485654073E+02 0.14794143088E+02 0.15671694464E+02 0.15142442059E+02 0.13787978891E+02
 0.12244257037E+02 0.10761464312E+02 0.94571357187E+01 0.83922546476E+01 0.76010327172E+01
 0.71107561503E+01 0.69441802303E+01 0.71107412825E+01 0.76010384525E+01 0.83923148838E+01
 0.94572368987E+01 0.10761541749E+02 0.12244262053E+02 0.13787957903E+02 0.15142524930E+02
 0.15671972433E+02 0.14794561148E+02 0.12486102957E+02 0.94447784008E+01 0.68591170682E+01
 0.58453649115E+01 0.68590255177E+01 0.94445367863E+01 0.12485710166E+02 0.16649018967E+02
 0.17226063082E+02 0.16409711272E+02 0.14976682363E+02 0.13451418961E+02 0.12015554462E+02
 0.10761464312E+02 0.97443978551E+01 0.90168345117E+01 0.86340404077E+01 0.86341947425E+01
 0.90170142760E+01 0.97442494565E+01 0.10761197518E+02 0.12015616289E+02 0.13451746986E+02
 0.14976791610E+02 0.16409486277E+02 0.17225971955E+02 0.16649411164E+02 0.14313873337E+02
 0.10647115525E+02 0.68591170682E+01 0.44491101237E+01 0.44492795968E+01 0.68593323866E+01
 0.10646914541E+02 0.14313304191E+02 0.18860198065E+02 0.18820983875E+02 0.17710734369E+02
 0.16276886928E+02 0.14817841087E+02 0.13451418961E+02 0.12244257037E+02 0.11268462285E+02
 0.10620285198E+02 0.10391463422E+02 0.10620412447E+02 0.11268562858E+02 0.12244240179E+02
 0.13451345334E+02 0.14817759551E+02 0.16276732072E+02 0.17710503037E+02 0.18820894619E+02
 0.18860461487E+02 0.17160701692E+02 0.13715643896E+02 0.94266353803E+01 0.58453649115E+01
 0.44492795968E+01 0.58457996640E+01 0.94269719757E+01 0.13715491153E+02 0.17160257581E+02
 0.20675017011E+02 0.20101218700E+02 0.18935181462E+02 0.17616031363E+02 0.16276886928E+02
 0.14976682363E+02 0.13787978891E+02 0.12843738655E+02 0.12309869733E+02 0.12309933368E+02
 0.12843925131E+02 0.13788183545E+02 0.14976668101E+02 0.16276524364E+02 0.17615502115E+02
 0.18934818332E+02 0.20101212515E+02 0.20675326227E+02 0.19896262716E+02 0.17356952959E+02
 0.13453803066E+02 0.94263618491E+01 0.68590255177E+01 0.68593323866E+01 0.94269719757E+01
 0.13454152021E+02 0.17356818930E+02 0.19895867957E+02 0.21747740735E+02 0.21038688453E+02
 0.20054026269E+02 0.18935181462E+02 0.17710734369E+02 0.16409711272E+02 0.15142442059E+02
 0.14176288866E+02 0.13810803920E+02 0.14176458639E+02 0.15142462881E+02 0.16409397188E+02
 0.17710286264E+02 0.18934903373E+02 0.20053959088E+02 0.21038679925E+02 0.21747753411E+02
 0.21685582666E+02 0.20250395289E+02 0.17356787603E+02 0.13715141781E+02 0.10646543066E+02
 0.94445367863E+01 0.10646914541E+02 0.13715491153E+02 0.17356818930E+02 0.20250216416E+02
 0.21685456542E+02 0.22209701015E+02 0.21734886080E+02 0.21038688453E+02 0.20101218700E+02
 0.18820983875E+02 0.17226063082E+02 0.15671694464E+02 0.14695188679E+02 0.14695232618E+02
 0.15671629953E+02 0.17225646335E+02 0.18820410747E+02 0.20100968605E+02 0.21038912307E+02
 0.21735214188E+02 0.22209737378E+02 0.22335931980E+02 0.21685299482E+02 0.19895878853E+02
 0.17160278920E+02 0.14313232636E+02 0.12485654073E+02 0.12485710166E+02 0.14313304191E+02
 0.17160257581E+02 0.19895867957E+02 0.21685456542E+02 0.22336145763E+02 0.22209572465E+02
 0.22335765021E+02 0.21685196329E+02 0.19896044103E+02 0.17160675179E+02 0.14313515342E+02
 0.12485643752E+02 0.12485696502E+02 0.14313629233E+02 0.17160753952E+02 0.19896032427E+02
 0.21685143840E+02 0.22335774727E+02 0.22209701088E+02 0.21735188272E+02 0.21038899908E+02
 0.20101126574E+02 0.18820700960E+02 0.17225765891E+02 0.15671430067E+02 0.14694966874E+02
 0.14695152663E+02 0.15671782656E+02 0.17225916810E+02 0.18820518933E+02 0.20100768122E+02
 0.21038557505E+02 0.21734942438E+02 0.22335765021E+02 0.22225927170E+02 0.20651722977E+02
 0.17534058893E+02 0.13633772153E+02 0.10355620203E+02 0.90729734155E+01 0.10356430698E+02
 0.13634575827E+02 0.17534182950E+02 0.20651333339E+02 0.22225638131E+02 0.22335815892E+02
 0.21610485815E+02 0.20594551047E+02 0.19441503877E+02 0.18178465167E+02 0.16827677212E+02
 0.15501080280E+02 0.14485287932E+02 0.14100447607E+02 0.14485767356E+02 0.15501450962E+02
 0.16827576835E+02 0.18178152989E+02 0.19441337548E+02 0.20594483832E+02 0.21610346172E+02
 0.21685196329E+02 0.20651722977E+02 0.17639417532E+02 0.13118125618E+02 0.84956732424E+01
 0.55606113054E+01 0.55611068787E+01 0.84965248263E+01 0.13118309671E+02 0.17638884623E+02
 0.20651308051E+02 0.21685349656E+02 0.21166418665E+02 0.19938457044E+02 0.18541098909E+02
 0.17122997494E+02 0.15742997032E+02 0.14475321523E+02 0.13461066328E+02 0.12883231026E+02
 0.12883417200E+02 0.13461320211E+02 0.14475228456E+02 0.15742724706E+02 0.17123049022E+02
 0.18541484274E+02 0.19938632926E+02 0.21166164959E+02 0.19896044103E+02 0.17534058893E+02
 0.13118125618E+02 0.77612161822E+01 0.33366321606E+01 0.16188615134E+01 0.33366892783E+01
 0.77611460163E+01 0.13117845623E+02 0.17533751713E+02 0.19895938480E+02 0.20157496077E+02
 0.19059615930E+02 0.17516775257E+02 0.15939590041E+02 0.14458995820E+02 0.13145838537E+02
 0.12078785519E+02 0.11366517562E+02 0.11114250450E+02 0.11366381762E+02 0.12078554863E+02
 0.13145679582E+02 0.14459101593E+02 0.15939927797E+02 0.17517067770E+02 0.19059667932E+02
 0.20157440068E+02 0.17160675179E+02 0.13633772153E+02 0.84956732424E+01 0.33366321606E+01
 0.93458199388E-01 0.93371498846E-01 0.33365011356E+01 0.84956421047E+01 0.13633700508E+02
 0.17160337509E+02 0.18455169503E+02 0.17892629169E+02 0.16400768461E+02 0.14742255974E+02
 0.13167281791E+02 0.11784318014E+02 0.10657146627E+02 0.98467135269E+01 0.94183485528E+01
 0.94181585386E+01 0.98464067801E+01 0.10657129382E+02 0.11784557766E+02 0.13167384282E+02
 0.14742074563E+02 0.16400635387E+02 0.17892876186E+02 0.18455658795E+02 0.14313515342E+02
 0.10355620203E+02 0.55606113054E+01 0.16188615134E+01 0.93371498846E-01 0.16189315304E+01
 0.55606237720E+01 0.10355477836E+02 0.14313233561E+02 0.16380409531E+02 0.16463196659E+02
 0.15232656752E+02 0.13586818210E+02 0.11965861997E+02 0.10522205096E+02 0.93339538765E+01
 0.84452910168E+01 0.78917393984E+01 0.77030635489E+01 0.78917092107E+01 0.84453570851E+01
 0.93340853264E+01 0.10522187622E+02 0.11965621699E+02 0.13586568649E+02 0.15232639668E+02
 0.16463427864E+02 0.16380739498E+02 0.12485643752E+02 0.90729734155E+01 0.55611068787E+01
 0.33366892783E+01 0.33365011356E+01 0.55606237720E+01 0.90724463847E+01 0.12485389633E+02
 0.14638835321E+02 0.15079297468E+02 0.14123798044E+02 0.12540684502E+02 0.10912532218E+02
 0.94308952900E+01 0.81913348435E+01 0.72382735859E+01 0.65919847834E+01 0.62650249737E+01
 0.62651639974E+01 0.65922182249E+01 0.72382899663E+01 0.81910980845E+01 0.94306778802E+01
 0.10912535797E+02 0.12540768980E+02 0.14123698630E+02 0.15079027030E+02 0.14638708560E+02
 0.12485696502E+02 0.10356430698E+02 0.84965248263E+01 0.77611460163E+01 0.84956421047E+01
 0.10355477836E+02 0.12485389633E+02 0.13955880845E+02 0.14211578714E+02 0.13290531750E+02
 0.11718617518E+02 0.10069708542E+02 0.85543140136E+01 0.72699566386E+01 0.62625866938E+01
 0.55451054094E+01 0.51165485121E+01 0.49740569809E+01 0.51165999893E+01 0.55451616797E+01
 0.62625827455E+01 0.72698691176E+01 0.85542106155E+01 0.10069690033E+02 0.11718652471E+02
 0.13290416166E+02 0.14211214627E+02 0.13955589261E+02 0.14313629233E+02 0.13634575827E+02
 0.13118309671E+02 0.13117845623E+02 0.13633700508E+02 0.14313233561E+02 0.14638835321E+02
 0.14211578714E+02 0.12976903090E+02 0.11258519826E+02 0.95149195884E+01 0.79335467492E+01
 0.65926447188E+01 0.55300224818E+01 0.47514421300E+01 0.42453279509E+01 0.39967776777E+01
 0.39966777474E+01 0.42452407349E+01 0.47516317023E+01 0.55303165306E+01 0.65926738759E+01
 0.79333406828E+01 0.95148633845E+01 0.11258702276E+02 0.12976928854E+02 0.14211227293E+02
 0.14638563158E+02 0.17160753952E+02 0.17534182950E+02 0.17638884623E+02 0.17533751713E+02
 0.17160337509E+02 0.16380409531E+02 0.15079297468E+02 0.13290531750E+02 0.11258519826E+02
 0.93198263424E+01 0.76089364976E+01 0.61765322982E+01 0.50423983964E+01 0.41997183904E+01
 0.36259737656E+01 0.32950494918E+01 0.31871453737E+01 0.32950361714E+01 0.36260616472E+01
 0.41999035377E+01 0.50425332561E+01 0.61765775572E+01 0.76090341200E+01 0.93200258588E+01
 0.11258616272E+02 0.13290349834E+02 0.15079022640E+02 0.16380432283E+02 0.19896032427E+02
 0.20651333339E+02 0.20651308051E+02 0.19895938480E+02 0.18455169503E+02 0.16463196659E+02
 0.14123798044E+02 0.11718617518E+02 0.95149195884E+01 0.76089364976E+01 0.60356559766E+01
 0.47984876001E+01 0.38758411757E+01 0.32318617458E+01 0.28285480066E+01 0.26353569239E+01
 0.26353970767E+01 0.28285980075E+01 0.32318265595E+01 0.38757687443E+01 0.47985185238E+01
 0.60358227142E+01 0.76091075640E+01 0.95149759224E+01 0.11718603136E+02 0.14123844136E+02
 0.16463342173E+02 0.18455329515E+02 0.21685143840E+02 0.22225638131E+02 0.21685349656E+02
 0.20157496077E+02 0.17892629169E+02 0.15232656752E+02 0.12540684502E+02 0.10069708542E+02
 0.79335467492E+01 0.61765322982E+01 0.47984876001E+01 0.37690239972E+01 0.30408139170E+01
 0.25635724787E+01 0.22953191987E+01 0.22089754661E+01 0.22952621177E+01 0.25634731803E+01
 0.30407089574E+01 0.37689406827E+01 0.47984085156E+01 0.61764396035E+01 0.79335059078E+01
 0.10069839523E+02 0.12541000366E+02 0.15232974090E+02 0.17892718835E+02 0.20157327376E+02
 0.22335774727E+02 0.22335815892E+02 0.21166418665E+02 0.19059615930E+02 0.16400768461E+02
 0.13586818210E+02 0.10912532218E+02 0.85543140136E+01 0.65926447188E+01 0.50423983964E+01
 0.38758411757E+01 0.30408139170E+01 0.24777509703E+01 0.21337999777E+01 0.19713414565E+01
 0.19712859277E+01 0.21336761819E+01 0.24776341713E+01 0.30407283312E+01 0.38757607752E+01
 0.50423160836E+01 0.65926005505E+01 0.85543419163E+01 0.10912605158E+02 0.13586866153E+02
 0.16400740427E+02 0.19059522956E+02 0.21166320667E+02 0.22209701088E+02 0.21610485815E+02
 0.19938457044E+02 0.17516775257E+02 0.14742255974E+02 0.11965861997E+02 0.94308952900E+01
 0.72699566386E+01 0.55300224818E+01 0.41997183904E+01 0.32318617458E+01 0.25635724787E+01
 0.21337999777E+01 0.18951250483E+01 0.18187354505E+01 0.18950901323E+01 0.21337042119E+01
 0.25634504176E+01 0.32318228506E+01 0.41998246512E+01 0.55301790601E+01 0.72699801069E+01
 0.94307021929E+01 0.11965559647E+02 0.14742039048E+02 0.17516749494E+02 0.19938568606E+02
 0.21610594948E+02 0.21735188272E+02 0.20594551047E+02 0.18541098909E+02 0.15939590041E+02
 0.13167281791E+02 0.10522205096E+02 0.81913348435E+01 0.62625866938E+01 0.47514421300E+01
 0.36259737656E+01 0.28285480066E+01 0.22953191987E+01 0.19713414565E+01 0.18187354505E+01
 0.18187616297E+01 0.19713926509E+01 0.22953503471E+01 0.28285499708E+01 0.36259650730E+01
 0.47514265797E+01 0.62625531367E+01 0.81912955340E+01 0.10522197214E+02 0.13167318101E+02
 0.15939633795E+02 0.18541105393E+02 0.20594522986E+02 0.21735170069E+02 0.21038899908E+02
 0.19441503877E+02 0.17122997494E+02 0.14458995820E+02 0.11784318014E+02 0.93339538765E+01
 0.72382735859E+01 0.55451054094E+01 0.42453279509E+01 0.32950494918E+01 0.26353569239E+01
 0.22089754661E+01 0.19712859277E+01 0.18950901323E+01 0.19713926509E+01 0.22091739335E+01
 0.26355412936E+01 0.32950569628E+01 0.42451190187E+01 0.55448649505E+01 0.72382594972E+01
 0.93342398221E+01 0.11784722431E+02 0.14459258756E+02 0.17123002289E+02 0.19441338586E+02
 0.21038749558E+02 0.21610639458E+02 0.20101126574E+02 0.18178465167E+02 0.15742997032E+02
 0.13145838537E+02 0.10657146627E+02 0.84452910168E+01 0.65919847834E+01 0.51165485121E+01
 0.39967776777E+01 0.31871453737E+01 0.26353970767E+01 0.22952621177E+01 0.21336761819E+01
 0.21337042119E+01 0.22953503471E+01 0.26355412936E+01 0.31873058886E+01 0.39968883045E+01
 0.51165708194E+01 0.65919550606E+01 0.84452953012E+01 0.10657239030E+02 0.13145990226E+02
 0.15743132154E+02 0.18178535059E+02 0.20101140710E+02 0.21166445893E+02 0.21166447999E+02
 0.18820700960E+02 0.16827677212E+02 0.14475321523E+02 0.12078785519E+02 0.98467135269E+01
 0.78917393984E+01 0.62650249737E+01 0.49740569809E+01 0.39966777474E+01 0.32950361714E+01
 0.28285980075E+01 0.25634731803E+01 0.24776341713E+01 0.25634504176E+01 0.28285499708E+01
 0.32950569628E+01 0.39968883045E+01 0.49743855210E+01 0.62652010056E+01 0.78915968415E+01
 0.98464094506E+01 0.12078623748E+02 0.14475424883E+02 0.16827912138E+02 0.18820884610E+02
 0.20157561672E+02 0.20628552267E+02 0.20157485585E+02 0.17225765891E+02 0.15501080280E+02
 0.13461066328E+02 0.11366517562E+02 0.94183485528E+01 0.77030635489E+01 0.62651639974E+01
 0.51165999893E+01 0.42452407349E+01 0.36260616472E+01 0.32318265595E+01 0.30407089574E+01
 0.30407283312E+01 0.32318228506E+01 0.36259650730E+01 0.42451190187E+01 0.51165708194E+01
 0.62652010056E+01 0.77030265325E+01 0.94182199050E+01 0.11366475171E+02 0.13461241354E+02
 0.15501341153E+02 0.17225870178E+02 0.18455276765E+02 0.19090909287E+02 0.19090983207E+02
 0.18455363533E+02 0.15671430067E+02 0.14485287932E+02 0.12883231026E+02 0.11114250450E+02
 0.94181585386E+01 0.78917092107E+01 0.65922182249E+01 0.55451616797E+01 0.47516317023E+01
 0.41999035377E+01 0.38757687443E+01 0.37689406827E+01 0.38757607752E+01 0.41998246512E+01
 0.47514265797E+01 0.55448649505E+01 0.65919550606E+01 0.78915968415E+01 0.94182199050E+01
 0.11114433591E+02 0.12883474581E+02 0.14485529433E+02 0.15671593824E+02 0.16380307228E+02
 0.16709286752E+02 0.16798067101E+02 0.16709304895E+02 0.16380260399E+02 0.14694966874E+02
 0.14100447607E+02 0.12883417200E+02 0.11366381762E+02 0.98464067801E+01 0.84453570851E+01
 0.72382899663E+01 0.62625827455E+01 0.55303165306E+01 0.50425332561E+01 0.47985185238E+01
 0.47984085156E+01 0.50423160836E+01 0.55301790601E+01 0.62625531367E+01 0.72382594972E+01
 0.84452953012E+01 0.98464094506E+01 0.11366475171E+02 0.12883474581E+02 0.14100423986E+02
 0.14695088592E+02 0.14638793749E+02 0.14216257840E+02 0.13851985380E+02 0.13851654142E+02
 0.14215568243E+02 0.14638292791E+02 0.14695152663E+02 0.14485767356E+02 0.13461320211E+02
 0.12078554863E+02 0.10657129382E+02 0.93340853264E+01 0.81910980845E+01 0.72698691176E+01
 0.65926738759E+01 0.61765775572E+01 0.60358227142E+01 0.61764396035E+01 0.65926005505E+01
 0.72699801069E+01 0.81912955340E+01 0.93342398221E+01 0.10657239030E+02 0.12078623748E+02
 0.13461241354E+02 0.14485529433E+02 0.14695088592E+02 0.13955928815E+02 0.12611546774E+02
 0.11347530239E+02 0.10833553283E+02 0.11346592384E+02 0.12610436034E+02 0.13955377546E+02
 0.15671782656E+02 0.15501450962E+02 0.14475228456E+02 0.13145679582E+02 0.11784557766E+02
 0.10522187622E+02 0.94306778802E+01 0.85542106155E+01 0.79333406828E+01 0.76090341200E+01
 0.76091075640E+01 0.79335059078E+01 0.85543419163E+01 0.94307021929E+01 0.10522197214E+02
 0.11784722431E+02 0.13145990226E+02 0.14475424883E+02 0.15501341153E+02 0.15671593824E+02
 0.14638793749E+02 0.12611546774E+02 0.10362827888E+02 0.88903241737E+01 0.88898403344E+01
 0.10361758633E+02 0.12610668188E+02 0.14638553954E+02 0.17225916810E+02 0.16827576835E+02
 0.15742724706E+02 0.14459101593E+02 0.13167384282E+02 0.11965621699E+02 0.10912535797E+02
 0.10069690033E+02 0.95148633845E+01 0.93200258588E+01 0.95149759224E+01 0.10069839523E+02
 0.10912605158E+02 0.11965559647E+02 0.13167318101E+02 0.14459258756E+02 0.15743132154E+02
 0.16827912138E+02 0.17225870178E+02 0.16380307228E+02 0.14216257840E+02 0.11347530239E+02
 0.88903241737E+01 0.79224310609E+01 0.88894247646E+01 0.11346601993E+02 0.14215991842E+02
 0.16380510873E+02 0.18820518933E+02 0.18178152989E+02 0.17123049022E+02 0.15939927797E+02
 0.14742074563E+02 0.13586568649E+02 0.12540768980E+02 0.11718652471E+02 0.11258702276E+02
 0.11258616272E+02 0.11718603136E+02 0.12541000366E+02 0.13586866153E+02 0.14742039048E+02
 0.15939633795E+02 0.17123002289E+02 0.18178535059E+02 0.18820884610E+02 0.18455276765E+02
 0.16709286752E+02 0.13851985380E+02 0.10833553283E+02 0.88898403344E+01 0.88894247646E+01
 0.10832780288E+02 0.13851632390E+02 0.16709428053E+02 0.18455321055E+02 0.20100768122E+02
 0.19441337548E+02 0.18541484274E+02 0.17517067770E+02 0.16400635387E+02 0.15232639668E+02
 0.14123698630E+02 0.13290416166E+02 0.12976928854E+02 0.13290349834E+02 0.14123844136E+02
 0.15232974090E+02 0.16400740427E+02 0.17516749494E+02 0.18541105393E+02 0.19441338586E+02
 0.20101140710E+02 0.20157561672E+02 0.19090909287E+02 0.16798067101E+02 0.13851654142E+02
 0.11346592384E+02 0.10361758633E+02 0.11346601993E+02 0.13851632390E+02 0.16797958032E+02
 0.19090644862E+02 0.20157137575E+02 0.21038557505E+02 0.20594483832E+02 0.19938632926E+02
 0.19059667932E+02 0.17892876186E+02 0.16463427864E+02 0.15079027030E+02 0.14211214627E+02
 0.14211227293E+02 0.15079022640E+02 0.16463342173E+02 0.17892718835E+02 0.19059522956E+02
 0.19938568606E+02 0.20594522986E+02 0.21038749558E+02 0.21166445893E+02 0.20628552267E+02
 0.19090983207E+02 0.16709304895E+02 0.14215568243E+02 0.12610436034E+02 0.12610668188E+02
 0.14215991842E+02 0.16709428053E+02 0.19090644862E+02 0.20628016846E+02 0.21166035693E+02
 0.21734942438E+02 0.21610346172E+02 0.21166164959E+02 0.20157440068E+02 0.18455658795E+02
 0.16380739498E+02 0.14638708560E+02 0.13955589261E+02 0.14638563158E+02 0.16380432283E+02
 0.18455329515E+02 0.20157327376E+02 0.21166320667E+02 0.21610594948E+02 0.21735170069E+02
 0.21610639458E+02 0.21166447999E+02 0.20157485585E+02 0.18455363533E+02 0.16380260399E+02
 0.14638292791E+02 0.13955377546E+02 0.14638553954E+02 0.16380510873E+02 0.18455321055E+02
 0.20157137575E+02 0.21166035693E+02 0.21610346172E+02 0.21747429513E+02 0.21685067778E+02
 0.20249905194E+02 0.17356734094E+02 0.13715570387E+02 0.10646983878E+02 0.94445724857E+01
 0.10646695527E+02 0.13715482918E+02 0.17357163329E+02 0.20250597575E+02 0.21685581680E+02
 0.21747676423E+02 0.21038622003E+02 0.20053920074E+02 0.18934891827E+02 0.17710367425E+02
 0.16409590132E+02 0.15142665166E+02 0.14176548638E+02 0.13810790313E+02 0.14176282724E+02
 0.15142477759E+02 0.16409675730E+02 0.17710520248E+02 0.18934846333E+02 0.20053715047E+02
 0.21038428955E+02 0.21685067778E+02 0.20651202001E+02 0.17638817826E+02 0.13117914338E+02
 0.84958184407E+01 0.55606352443E+01 0.55608030990E+01 0.84962711490E+01 0.13118510281E+02
 0.17639395610E+02 0.20651672774E+02 0.21685402379E+02 0.21166355357E+02 0.19938424050E+02
 0.18541042536E+02 0.17122921076E+02 0.15743061056E+02 0.14475578313E+02 0.13461310092E+02
 0.12883266165E+02 0.12883347443E+02 0.13461400747E+02 0.14475477575E+02 0.15742857972E+02
 0.17122856480E+02 0.18541140117E+02 0.19938475720E+02 0.21166207295E+02 0.20249905194E+02
 0.17638817826E+02 0.12860809346E+02 0.71062482471E+01 0.23673809121E+01 0.52960316077E+00