       N       E                     dE             d eps       ncg     rms          rms(c)
DAV:   1    -0.275660506979E+01   -0.27566E+01   -0.21315E+03   936   0.432E+02
DAV:   2    -0.119877683842E+02   -0.92312E+01   -0.89823E+01  1400   0.585E+01
DAV:   3    -0.120747995670E+02   -0.87031E-01   -0.87031E-01  1192   0.687E+00
DAV:   4    -0.120750051887E+02   -0.20562E-03   -0.20562E-03  1384   0.330E-01
DAV:   5    -0.120750052686E+02   -0.79859E-07   -0.79667E-07  1200   0.602E-03    0.339E+00
DAV:   6    -0.118234289355E+02    0.25158E+00   -0.18762E-01   992   0.221E+00    0.192E+00
DAV:   7    -0.117182438811E+02    0.10519E+00   -0.28449E-01  1112   0.277E+00    0.191E-01
DAV:   8    -0.117183419024E+02   -0.98021E-04   -0.67042E-03   992   0.617E-01    0.350E-02
DAV:   9    -0.117182832291E+02    0.58673E-04   -0.23126E-04  1336   0.936E-02
   1 F= -.11718283E+02 E0= -.11718238E+02  d E =-.894876E-04
