diamond Si                              
   4.90000000000000     
     0.000000    0.490819    0.490819
     0.490819    0.000000    0.490819
     0.490819    0.490819    0.000000
   Si
     2
Direct
  0.875000  0.875000  0.875000
  0.125000  0.125000  0.125000
 
   28   28   28
 0.21702715797E+02 0.21467994727E+02 0.20643149616E+02 0.19054740713E+02 0.16791353787E+02
 0.14320585092E+02 0.12375409328E+02 0.11634758840E+02 0.12375225531E+02 0.14320343343E+02
 0.16791191227E+02 0.19054706899E+02 0.20643211193E+02 0.21468098658E+02 0.21702829471E+02
 0.21468098658E+02 0.20643211193E+02 0.19054706899E+02 0.16791191227E+02 0.14320343343E+02
 0.12375225531E+02 0.11634758840E+02 0.12375409328E+02 0.14320585092E+02 0.16791353787E+02
 0.19054740713E+02 0.20643149616E+02 0.21467994727E+02 0.21467994727E+02 0.21125837783E+02
 0.19818226953E+02 0.17463662876E+02 0.14440172675E+02 0.11567424855E+02 0.98063620795E+01
 0.98061843440E+01 0.11567099922E+02 0.14440028517E+02 0.17463702870E+02 0.19818197974E+02
 0.21125679805E+02 0.21467962673E+02 0.21173679983E+02 0.20449349659E+02 0.19281068673E+02
 0.17635586901E+02 0.15702127157E+02 0.13926287076E+02 0.12851335765E+02 0.12851345065E+02
 0.13926405770E+02 0.15702424092E+02 0.17635857524E+02 0.19281021836E+02 0.20449016537E+02
 0.21173416789E+02 0.20643149616E+02 0.19818226953E+02 0.17691072542E+02 0.14446746537E+02
 0.10840513287E+02 0.79904815025E+01 0.69049671552E+01 0.79901092425E+01 0.10840058758E+02
 0.14446509444E+02 0.17691115375E+02 0.19818400023E+02 0.20643291316E+02 0.20449074126E+02
 0.19690477694E+02 0.18604330177E+02 0.17266129831E+02 0.15744698124E+02 0.14251826276E+02
 0.13132282536E+02 0.12714021510E+02 0.13132280219E+02 0.14251855594E+02 0.15744771499E+02
 0.17266214574E+02 0.18604386248E+02 0.19690486119E+02 0.20449016537E+02 0.19054740713E+02
 0.17463662876E+02 0.14446746537E+02 0.10551701103E+02 0.68644321572E+01 0.46130667753E+01
 0.46128583884E+01 0.68639245413E+01 0.10551199735E+02 0.14446575678E+02 0.17463910930E+02
 0.19055142038E+02 0.19281178602E+02 0.18604168745E+02 0.17523831645E+02 0.16249851004E+02
 0.14899864820E+02 0.13604223019E+02 0.12543762548E+02 0.11937102884E+02 0.11937127644E+02
 0.12543744189E+02 0.13604067858E+02 0.14899716947E+02 0.16249951655E+02 0.17524157846E+02
 0.18604386248E+02 0.19281021836E+02 0.16791353787E+02 0.14440172675E+02 0.10840513287E+02
 0.68644321572E+01 0.37424717004E+01 0.25578639755E+01 0.37421720111E+01 0.68640685002E+01
 0.10840323404E+02 0.14440195406E+02 0.16791459451E+02 0.17635920129E+02 0.17266210704E+02
 0.16249920543E+02 0.15011229222E+02 0.13715130564E+02 0.12484461419E+02 0.11448618544E+02
 0.10747783074E+02 0.10498657986E+02 0.10747734778E+02 0.11448562628E+02 0.12484433892E+02
 0.13715135610E+02 0.15011254873E+02 0.16249951655E+02 0.17266214574E+02 0.17635857524E+02
 0.14320585092E+02 0.11567424855E+02 0.79904815025E+01 0.46130667753E+01 0.25578639755E+01
 0.25577708630E+01 0.46128977641E+01 0.79904053715E+01 0.11567429903E+02 0.14320529962E+02
 0.15702298702E+02 0.15744749224E+02 0.14899888676E+02 0.13715330568E+02 0.12457981899E+02
 0.11260666375E+02 0.10230876752E+02 0.94682007620E+01 0.90600144575E+01 0.90599335174E+01
 0.94680942675E+01 0.10230932611E+02 0.11260812636E+02 0.12457980811E+02 0.13715135610E+02
 0.14899716947E+02 0.15744771499E+02 0.15702424092E+02 0.12375409328E+02 0.98063620795E+01
 0.69049671552E+01 0.46128583884E+01 0.37421720111E+01 0.46128977641E+01 0.69050180708E+01
 0.98063971248E+01 0.12375423860E+02 0.13926410939E+02 0.14251859279E+02 0.13604070133E+02
 0.12484436932E+02 0.11260823836E+02 0.10082104318E+02 0.90515608011E+01 0.82489263630E+01
 0.77377102277E+01 0.75619331640E+01 0.77377048696E+01 0.82489110804E+01 0.90515370125E+01
 0.10082082534E+02 0.11260812636E+02 0.12484433892E+02 0.13604067858E+02 0.14251855594E+02
 0.13926405770E+02 0.11634758840E+02 0.98061843440E+01 0.79901092425E+01 0.68639245413E+01
 0.68640685002E+01 0.79904053715E+01 0.98063971248E+01 0.11634824218E+02 0.12851371001E+02
 0.13132321540E+02 0.12543720930E+02 0.11448436758E+02 0.10230831974E+02 0.90515938100E+01
 0.80080234557E+01 0.71695155480E+01 0.65842115021E+01 0.62836219199E+01 0.62836987823E+01
 0.65843229376E+01 0.71694848754E+01 0.80078832336E+01 0.90515370125E+01 0.10230932611E+02
 0.11448562628E+02 0.12543744189E+02 0.13132280219E+02 0.12851345065E+02 0.12375225531E+02
 0.11567099922E+02 0.10840058758E+02 0.10551199735E+02 0.10840323404E+02 0.11567429903E+02
 0.12375423860E+02 0.12851371001E+02 0.12713989941E+02 0.11937111673E+02 0.10747739397E+02
 0.94680913426E+01 0.82488905327E+01 0.71694529261E+01 0.62871796268E+01 0.56384075609E+01
 0.52431152811E+01 0.51105053772E+01 0.52431453335E+01 0.56384502834E+01 0.62872192529E+01
 0.71694848754E+01 0.82489110804E+01 0.94680942675E+01 0.10747734778E+02 0.11937127644E+02
 0.12714021510E+02 0.12851335765E+02 0.14320343343E+02 0.14440028517E+02 0.14446509444E+02
 0.14446575678E+02 0.14440195406E+02 0.14320529962E+02 0.13926410939E+02 0.13132321540E+02
 0.11937111673E+02 0.10498699206E+02 0.90599896241E+01 0.77376907288E+01 0.65842042503E+01
 0.56383147073E+01 0.49228792394E+01 0.44466013257E+01 0.42094937222E+01 0.42094481845E+01
 0.44465373925E+01 0.49229144444E+01 0.56384502834E+01 0.65843229376E+01 0.77377048696E+01
 0.90599335174E+01 0.10498657986E+02 0.11937102884E+02 0.13132282536E+02 0.13926287076E+02
 0.16791191227E+02 0.17463702870E+02 0.17691115375E+02 0.17463910930E+02 0.16791459451E+02
 0.15702298702E+02 0.14251859279E+02 0.12543720930E+02 0.10747739397E+02 0.90599896241E+01
 0.75619165722E+01 0.62836861133E+01 0.52431400956E+01 0.44465348201E+01 0.38898078471E+01
 0.35626903211E+01 0.34550453077E+01 0.35626999949E+01 0.38898159479E+01 0.44465373925E+01
 0.52431453335E+01 0.62836987823E+01 0.75619331640E+01 0.90600144575E+01 0.10747783074E+02
 0.12543762548E+02 0.14251826276E+02 0.15702127157E+02 0.19054706899E+02 0.19818197974E+02
 0.19818400023E+02 0.19055142038E+02 0.17635920129E+02 0.15744749224E+02 0.13604070133E+02
 0.11448436758E+02 0.94680913426E+01 0.77376907288E+01 0.62836861133E+01 0.51106221492E+01
 0.42095388419E+01 0.35626937462E+01 0.31484373010E+01 0.29471756799E+01 0.29472217751E+01
 0.31485157403E+01 0.35626999949E+01 0.42094481845E+01 0.51105053772E+01 0.62836219199E+01
 0.77377102277E+01 0.94682007620E+01 0.11448618544E+02 0.13604223019E+02 0.15744698124E+02
 0.17635586901E+02 0.20643211193E+02 0.21125679805E+02 0.20643291316E+02 0.19281178602E+02
 0.17266210704E+02 0.14899888676E+02 0.12484436932E+02 0.10230831974E+02 0.82488905327E+01
 0.65842042503E+01 0.52431400956E+01 0.42095388419E+01 0.34550933880E+01 0.29472594420E+01
 0.26563944916E+01 0.25618890890E+01 0.26563742743E+01 0.29472217751E+01 0.34550453077E+01
 0.42094937222E+01 0.52431152811E+01 0.65842115021E+01 0.82489263630E+01 0.10230876752E+02
 0.12484461419E+02 0.14899864820E+02 0.17266129831E+02 0.19281068673E+02 0.21468098658E+02
 0.21467962673E+02 0.20449074126E+02 0.18604168745E+02 0.16249920543E+02 0.13715330568E+02
 0.11260823836E+02 0.90515938100E+01 0.71694529261E+01 0.56383147073E+01 0.44465348201E+01
 0.35626937462E+01 0.29472594420E+01 0.25620013504E+01 0.23773371225E+01 0.23772847956E+01
 0.25618890890E+01 0.29471756799E+01 0.35626903211E+01 0.44466013257E+01 0.56384075609E+01
 0.71695155480E+01 0.90515608011E+01 0.11260666375E+02 0.13715130564E+02 0.16249851004E+02
 0.18604330177E+02 0.20449349659E+02 0.21702829471E+02 0.21173679983E+02 0.19690477694E+02
 0.17523831645E+02 0.15011229222E+02 0.12457981899E+02 0.10082104318E+02 0.80080234557E+01
 0.62871796268E+01 0.49228792394E+01 0.38898078471E+01 0.31484373010E+01 0.26563944916E+01
 0.23773371225E+01 0.22871254190E+01 0.23773371225E+01 0.26563944916E+01 0.31484373010E+01
 0.38898078471E+01 0.49228792394E+01 0.62871796268E+01 0.80080234557E+01 0.10082104318E+02
 0.12457981899E+02 0.15011229222E+02 0.17523831645E+02 0.19690477694E+02 0.21173679983E+02
 0.21468098658E+02 0.20449349659E+02 0.18604330177E+02 0.16249851004E+02 0.13715130564E+02
 0.11260666375E+02 0.90515608011E+01 0.71695155480E+01 0.56384075609E+01 0.44466013257E+01
 0.35626903211E+01 0.29471756799E+01 0.25618890890E+01 0.23772847956E+01 0.23773371225E+01
 0.25620013504E+01 0.29472594420E+01 0.35626937462E+01 0.44465348201E+01 0.56383147073E+01
 0.71694529261E+01 0.90515938100E+01 0.11260823836E+02 0.13715330568E+02 0.16249920543E+02
 0.18604168745E+02 0.20449074126E+02 0.21467962673E+02 0.20643211193E+02 0.19281068673E+02
 0.17266129831E+02 0.14899864820E+02 0.12484461419E+02 0.10230876752E+02 0.82489263630E+01
 0.65842115021E+01 0.52431152811E+01 0.42094937222E+01 0.34550453077E+01 0.29472217751E+01
 0.26563742743E+01 0.25618890890E+01 0.26563944916E+01 0.29472594420E+01 0.34550933880E+01
 0.42095388419E+01 0.52431400956E+01 0.65842042503E+01 0.82488905327E+01 0.10230831974E+02
 0.12484436932E+02 0.14899888676E+02 0.17266210704E+02 0.19281178602E+02 0.20643291316E+02
 0.21125679805E+02 0.19054706899E+02 0.17635586901E+02 0.15744698124E+02 0.13604223019E+02
 0.11448618544E+02 0.94682007620E+01 0.77377102277E+01 0.62836219199E+01 0.51105053772E+01
 0.42094481845E+01 0.35626999949E+01 0.31485157403E+01 0.29472217751E+01 0.29471756799E+01
 0.31484373010E+01 0.35626937462E+01 0.42095388419E+01 0.51106221492E+01 0.62836861133E+01
 0.77376907288E+01 0.94680913426E+01 0.11448436758E+02 0.13604070133E+02 0.15744749224E+02
 0.17635920129E+02 0.19055142038E+02 0.19818400023E+02 0.19818197974E+02 0.16791191227E+02
 0.15702127157E+02 0.14251826276E+02 0.12543762548E+02 0.10747783074E+02 0.90600144575E+01
 0.75619331640E+01 0.62836987823E+01 0.52431453335E+01 0.44465373925E+01 0.38898159479E+01
 0.35626999949E+01 0.34550453077E+01 0.35626903211E+01 0.38898078471E+01 0.44465348201E+01
 0.52431400956E+01 0.62836861133E+01 0.75619165722E+01 0.90599896241E+01 0.10747739397E+02
 0.12543720930E+02 0.14251859279E+02 0.15702298702E+02 0.16791459451E+02 0.17463910930E+02
 0.17691115375E+02 0.17463702870E+02 0.14320343343E+02 0.13926287076E+02 0.13132282536E+02
 0.11937102884E+02 0.10498657986E+02 0.90599335174E+01 0.77377048696E+01 0.65843229376E+01
 0.56384502834E+01 0.49229144444E+01 0.44465373925E+01 0.42094481845E+01 0.42094937222E+01
 0.44466013257E+01 0.49228792394E+01 0.56383147073E+01 0.65842042503E+01 0.77376907288E+01
 0.90599896241E+01 0.10498699206E+02 0.11937111673E+02 0.13132321540E+02 0.13926410939E+02
 0.14320529962E+02 0.14440195406E+02 0.14446575678E+02 0.14446509444E+02 0.14440028517E+02
 0.12375225531E+02 0.12851335765E+02 0.12714021510E+02 0.11937127644E+02 0.10747734778E+02
 0.94680942675E+01 0.82489110804E+01 0.71694848754E+01 0.62872192529E+01 0.56384502834E+01
 0.52431453335E+01 0.51105053772E+01 0.52431152811E+01 0.56384075609E+01 0.62871796268E+01
 0.71694529261E+01 0.82488905327E+01 0.94680913426E+01 0.10747739397E+02 0.11937111673E+02
 0.12713989941E+02 0.12851371001E+02 0.12375423860E+02 0.11567429903E+02 0.10840323404E+02
 0.10551199735E+02 0.10840058758E+02 0.11567099922E+02 0.11634758840E+02 0.12851345065E+02
 0.13132280219E+02 0.12543744189E+02 0.11448562628E+02 0.10230932611E+02 0.90515370125E+01
 0.80078832336E+01 0.71694848754E+01 0.65843229376E+01 0.62836987823E+01 0.62836219199E+01
 0.65842115021E+01 0.71695155480E+01 0.80080234557E+01 0.90515938100E+01 0.10230831974E+02
 0.11448436758E+02 0.12543720930E+02 0.13132321540E+02 0.12851371001E+02 0.11634824218E+02
 0.98063971248E+01 0.79904053715E+01 0.68640685002E+01 0.68639245413E+01 0.79901092425E+01
 0.98061843440E+01 0.12375409328E+02 0.13926405770E+02 0.14251855594E+02 0.13604067858E+02
 0.12484433892E+02 0.11260812636E+02 0.10082082534E+02 0.90515370125E+01 0.82489110804E+01
 0.77377048696E+01 0.75619331640E+01 0.77377102277E+01 0.82489263630E+01 0.90515608011E+01
 0.10082104318E+02 0.11260823836E+02 0.12484436932E+02 0.13604070133E+02 0.14251859279E+02
 0.13926410939E+02 0.12375423860E+02 0.98063971248E+01 0.69050180708E+01 0.46128977641E+01
 0.37421720111E+01 0.46128583884E+01 0.69049671552E+01 0.98063620795E+01 0.14320585092E+02
 0.15702424092E+02 0.15744771499E+02 0.14899716947E+02 0.13715135610E+02 0.12457980811E+02
 0.11260812636E+02 0.10230932611E+02 0.94680942675E+01 0.90599335174E+01 0.90600144575E+01
 0.94682007620E+01 0.10230876752E+02 0.11260666375E+02 0.12457981899E+02 0.13715330568E+02
 0.14899888676E+02 0.15744749224E+02 0.15702298702E+02 0.14320529962E+02 0.11567429903E+02
 0.79904053715E+01 0.46128977641E+01 0.25577708630E+01 0.25578639755E+01 0.46130667753E+01
 0.79904815025E+01 0.11567424855E+02 0.16791353787E+02 0.17635857524E+02 0.17266214574E+02
 0.16249951655E+02 0.15011254873E+02 0.13715135610E+02 0.12484433892E+02 0.11448562628E+02
 0.10747734778E+02 0.10498657986E+02 0.10747783074E+02 0.11448618544E+02 0.12484461419E+02
 0.13715130564E+02 0.15011229222E+02 0.16249920543E+02 0.17266210704E+02 0.17635920129E+02
 0.16791459451E+02 0.14440195406E+02 0.10840323404E+02 0.68640685002E+01 0.37421720111E+01
 0.25578639755E+01 0.37424717004E+01 0.68644321572E+01 0.10840513287E+02 0.14440172675E+02
 0.19054740713E+02 0.19281021836E+02 0.18604386248E+02 0.17524157846E+02 0.16249951655E+02
 0.14899716947E+02 0.13604067858E+02 0.12543744189E+02 0.11937127644E+02 0.11937102884E+02
 0.12543762548E+02 0.13604223019E+02 0.14899864820E+02 0.16249851004E+02 0.17523831645E+02
 0.18604168745E+02 0.19281178602E+02 0.19055142038E+02 0.17463910930E+02 0.14446575678E+02
 0.10551199735E+02 0.68639245413E+01 0.46128583884E+01 0.46130667753E+01 0.68644321572E+01
 0.10551701103E+02 0.14446746537E+02 0.17463662876E+02 0.20643149616E+02 0.20449016537E+02
 0.19690486119E+02 0.18604386248E+02 0.17266214574E+02 0.15744771499E+02 0.14251855594E+02
 0.13132280219E+02 0.12714021510E+02 0.13132282536E+02 0.14251826276E+02 0.15744698124E+02
 0.17266129831E+02 0.18604330177E+02 0.19690477694E+02 0.20449074126E+02 0.20643291316E+02
 0.19818400023E+02 0.17691115375E+02 0.14446509444E+02 0.10840058758E+02 0.79901092425E+01
 0.69049671552E+01 0.79904815025E+01 0.10840513287E+02 0.14446746537E+02 0.17691072542E+02
 0.19818226953E+02 0.21467994727E+02 0.21173416789E+02 0.20449016537E+02 0.19281021836E+02
 0.17635857524E+02 0.15702424092E+02 0.13926405770E+02 0.12851345065E+02 0.12851335765E+02
 0.13926287076E+02 0.15702127157E+02 0.17635586901E+02 0.19281068673E+02 0.20449349659E+02
 0.21173679983E+02 0.21467962673E+02 0.21125679805E+02 0.19818197974E+02 0.17463702870E+02
 0.14440028517E+02 0.11567099922E+02 0.98061843440E+01 0.98063620795E+01 0.11567424855E+02
 0.14440172675E+02 0.17463662876E+02 0.19818226953E+02 0.21125837783E+02 0.21468004893E+02
 0.21125896061E+02 0.19818277933E+02 0.17463608964E+02 0.14439964774E+02 0.11567148775E+02
 0.98062110192E+01 0.98062951838E+01 0.11567405510E+02 0.14440307953E+02 0.17463793738E+02
 0.19818127391E+02 0.21125576625E+02 0.21467899889E+02 0.21173654785E+02 0.20449371163E+02
 0.19281170157E+02 0.17635735581E+02 0.15702197104E+02 0.13926177106E+02 0.12851091957E+02
 0.12851128115E+02 0.13926342059E+02 0.15702507979E+02 0.17635986948E+02 0.19281101001E+02
 0.20449022925E+02 0.21173395264E+02 0.21125896061E+02 0.20226847486E+02 0.17959641965E+02
 0.14524273562E+02 0.10716815697E+02 0.77121559126E+01 0.65687882444E+01 0.77126707074E+01
 0.10717470290E+02 0.14524628527E+02 0.17959533478E+02 0.20226468214E+02 0.21125590226E+02
 0.20947123052E+02 0.20168343306E+02 0.19050906481E+02 0.17667786842E+02 0.16086618048E+02
 0.14530528733E+02 0.13361926983E+02 0.12925225620E+02 0.13362281611E+02 0.14530966419E+02
 0.16086829910E+02 0.17667662116E+02 0.19050580180E+02 0.20168076734E+02 0.20947131754E+02
 0.19818277933E+02 0.17959641965E+02 0.14535952475E+02 0.10162376313E+02 0.60422657686E+01
 0.35324692383E+01 0.35327309474E+01 0.60427818203E+01 0.10162679641E+02 0.14535921176E+02
 0.17959520447E+02 0.19818247290E+02 0.20162796727E+02 0.19485631500E+02 0.18348777743E+02
 0.17004632644E+02 0.15576260511E+02 0.14194386849E+02 0.13056094325E+02 0.12402738328E+02
 0.12402926488E+02 0.13056436609E+02 0.14194514617E+02 0.15576126551E+02 0.17004501470E+02
 0.18348814015E+02 0.19485721583E+02 0.20162816379E+02 0.17463608964E+02 0.14524273562E+02
 0.10162376313E+02 0.54069022633E+01 0.16956835418E+01 0.29108838731E+00 0.16956202151E+01
 0.54068563544E+01 0.10162428164E+02 0.14524416609E+02 0.17463741952E+02 0.18654616805E+02
 0.18404779677E+02 0.17349720961E+02 0.16023058339E+02 0.14627742128E+02 0.13297752440E+02
 0.12174286488E+02 0.11411034717E+02 0.11138736020E+02 0.11411036595E+02 0.12174254766E+02
 0.13297689865E+02 0.14627720660E+02 0.16023145110E+02 0.17349885677E+02 0.18404904213E+02
 0.18654604472E+02 0.14439964774E+02 0.10716815697E+02 0.60422657686E+01 0.16956835418E+01
 -.93092814241E+00 -.93107818040E+00 0.16954261348E+01 0.60422081386E+01 0.10716960865E+02
 0.14440043025E+02 0.16503484040E+02 0.16898888449E+02 0.16132389497E+02 0.14874657633E+02
 0.13513450445E+02 0.12206249303E+02 0.11075397880E+02 0.10234168639E+02 0.97826533101E+01
 0.97825814194E+01 0.10234060509E+02 0.11075403016E+02 0.12206320879E+02 0.13513431869E+02
 0.14874557892E+02 0.16132390886E+02 0.16899049526E+02 0.16503609942E+02 0.11567148775E+02
 0.77121559126E+01 0.35324692383E+01 0.29108838731E+00 -.93107818040E+00 0.29092996711E+00
 0.35322627657E+01 0.77120138943E+01 0.11567088205E+02 0.14153556002E+02 0.15136178426E+02
 0.14772478557E+02 0.13664621821E+02 0.12360672760E+02 0.11078692733E+02 0.99446673285E+01
 0.90546210920E+01 0.84848744797E+01 0.82884774792E+01 0.84849006337E+01 0.90546689267E+01
 0.99446948503E+01 0.11078648062E+02 0.12360570940E+02 0.13664544191E+02 0.14772475082E+02
 0.15136216304E+02 0.14153591994E+02 0.98062110192E+01 0.65687882444E+01 0.35327309474E+01
 0.16956202151E+01 0.16954261348E+01 0.35322627657E+01 0.65683309510E+01 0.98060426194E+01
 0.12302798472E+02 0.13519493957E+02 0.13451458309E+02 0.12517100985E+02 0.11274521252E+02
 0.10020607843E+02 0.88855016638E+01 0.79606067533E+01 0.73092797294E+01 0.69730859381E+01
 0.69731441349E+01 0.73093615752E+01 0.79605739329E+01 0.88853858578E+01 0.10020580714E+02
 0.11274644164E+02 0.12517205687E+02 0.13451347286E+02 0.13519213137E+02 0.12302627880E+02
 0.98062951838E+01 0.77126707074E+01 0.60427818203E+01 0.54068563544E+01 0.60422081386E+01
 0.77120138943E+01 0.98060426194E+01 0.11598036125E+02 0.12541351270E+02 0.12465740883E+02
 0.11591209700E+02 0.10366772943E+02 0.91197218906E+01 0.79751794981E+01 0.70182189496E+01
 0.63043155331E+01 0.58655750928E+01 0.57177797622E+01 0.58655696711E+01 0.63042976875E+01
 0.70181935950E+01 0.79751810660E+01 0.91197929529E+01 0.10366893641E+02 0.11591253318E+02
 0.12465566878E+02 0.12541007332E+02 0.11597830702E+02 0.11567405510E+02 0.10717470290E+02
 0.10162679641E+02 0.10162428164E+02 0.10716960865E+02 0.11567088205E+02 0.12302798472E+02
 0.12541351270E+02 0.12098178042E+02 0.11065586770E+02 0.97560467729E+01 0.84577922939E+01
 0.72745830233E+01 0.62744229531E+01 0.55023918060E+01 0.49818168559E+01 0.47208451369E+01
 0.47208064133E+01 0.49817776465E+01 0.55024545082E+01 0.62745421733E+01 0.72746322923E+01
 0.84577566249E+01 0.97560170871E+01 0.11065570277E+02 0.12098068580E+02 0.12541156042E+02
 0.12302756349E+02 0.14440307953E+02 0.14524628527E+02 0.14535921176E+02 0.14524416609E+02
 0.14440043025E+02 0.14153556002E+02 0.13519493957E+02 0.12465740883E+02 0.11065586770E+02
 0.95396438004E+01 0.81052869980E+01 0.68318823302E+01 0.57615585443E+01 0.49223997210E+01
 0.43263558120E+01 0.39727158560E+01 0.38558159485E+01 0.39727221368E+01 0.43263873397E+01
 0.49224558470E+01 0.57616124472E+01 0.68319151286E+01 0.81052956305E+01 0.95396124073E+01
 0.11065495280E+02 0.12465625840E+02 0.13519464078E+02 0.14153698063E+02 0.17463793738E+02
 0.17959533478E+02 0.17959520447E+02 0.17463741952E+02 0.16503484040E+02 0.15136178426E+02
 0.13451458309E+02 0.11591209700E+02 0.97560467729E+01 0.81052869980E+01 0.66802034411E+01
 0.54999422925E+01 0.45727767087E+01 0.38958200368E+01 0.34573953534E+01 0.32430825394E+01
 0.32431126477E+01 0.34574359943E+01 0.38958004973E+01 0.45727193390E+01 0.54999357469E+01
 0.66802712722E+01 0.81053483267E+01 0.97560287020E+01 0.11591148631E+02 0.13451447934E+02
 0.15136246973E+02 0.16503572968E+02 0.19818127391E+02 0.20226468214E+02 0.19818247290E+02
 0.18654616805E+02 0.16898888449E+02 0.14772478557E+02 0.12517100985E+02 0.10366772943E+02
 0.84577922939E+01 0.68318823302E+01 0.54999422925E+01 0.44560484791E+01 0.36831263427E+01
 0.31573961701E+01 0.28543549069E+01 0.27556157054E+01 0.28543557001E+01 0.31573851103E+01
 0.36830910061E+01 0.44559897575E+01 0.54998800514E+01 0.68318531452E+01 0.84578331910E+01
 0.10366888616E+02 0.12517238367E+02 0.14772548439E+02 0.16898834334E+02 0.18654474300E+02
 0.21125576625E+02 0.21125590226E+02 0.20162796727E+02 0.18404779677E+02 0.16132389497E+02
 0.13664621821E+02 0.11274521252E+02 0.91197218906E+01 0.72745830233E+01 0.57615585443E+01
 0.45727767087E+01 0.36831263427E+01 0.30590822967E+01 0.26664974400E+01 0.24778271511E+01
 0.24777923172E+01 0.26664303869E+01 0.30590418718E+01 0.36831137900E+01 0.45727495990E+01
 0.57615118950E+01 0.72745696102E+01 0.91197780418E+01 0.11274607480E+02 0.13664663819E+02
 0.16132361793E+02 0.18404721174E+02 0.20162753774E+02 0.21467899889E+02 0.20947123052E+02
 0.19485631500E+02 0.17349720961E+02 0.14874657633E+02 0.12360672760E+02 0.10020607843E+02
 0.79751794981E+01 0.62744229531E+01 0.49223997210E+01 0.38958200368E+01 0.31573961701E+01
 0.26664974400E+01 0.23878144826E+01 0.22976708526E+01 0.23877676815E+01 0.26664214914E+01
 0.31573345143E+01 0.38958220744E+01 0.49224716036E+01 0.62745043000E+01 0.79751882281E+01
 0.10020517389E+02 0.12360544315E+02 0.14874592329E+02 0.17349774219E+02 0.19485764835E+02
 0.20947232897E+02 0.21173654785E+02 0.20168343306E+02 0.18348777743E+02 0.16023058339E+02
 0.13513450445E+02 0.11078692733E+02 0.88855016638E+01 0.70182189496E+01 0.55023918060E+01
 0.43263558120E+01 0.34573953534E+01 0.28543549069E+01 0.24778271511E+01 0.22976708526E+01
 0.22976952244E+01 0.24778648298E+01 0.28543544251E+01 0.34573663081E+01 0.43263472193E+01
 0.55024110269E+01 0.70182249788E+01 0.88854819085E+01 0.11078691670E+02 0.13513493443E+02
 0.16023089539E+02 0.18348725230E+02 0.20168231487E+02 0.21173595844E+02 0.20449371163E+02
 0.19050906481E+02 0.17004632644E+02 0.14627742128E+02 0.12206249303E+02 0.99446673285E+01
 0.79606067533E+01 0.63043155331E+01 0.49818168559E+01 0.39727158560E+01 0.32430825394E+01
 0.27556157054E+01 0.24777923172E+01 0.23877676815E+01 0.24778648298E+01 0.27557207081E+01
 0.32431547500E+01 0.39726989869E+01 0.49817089727E+01 0.63041934998E+01 0.79605904874E+01
 0.99448225371E+01 0.12206497384E+02 0.14627882818E+02 0.17004506893E+02 0.19050568545E+02
 0.20449080307E+02 0.20947272765E+02 0.19281170157E+02 0.17667786842E+02 0.15576260511E+02
 0.13297752440E+02 0.11075397880E+02 0.90546210920E+01 0.73092797294E+01 0.58655750928E+01
 0.47208451369E+01 0.38558159485E+01 0.32431126477E+01 0.28543557001E+01 0.26664303869E+01
 0.26664214914E+01 0.28543544251E+01 0.32431547500E+01 0.38558852593E+01 0.47208825593E+01
 0.58655530556E+01 0.73092414279E+01 0.90546287441E+01 0.11075456320E+02 0.13297805493E+02
 0.15576257516E+02 0.17667732506E+02 0.19281109571E+02 0.20162811210E+02 0.20162836391E+02
 0.17635735581E+02 0.16086618048E+02 0.14194386849E+02 0.12174286488E+02 0.10234168639E+02
 0.84848744797E+01 0.69730859381E+01 0.57177797622E+01 0.47208064133E+01 0.39727221368E+01
 0.34574359943E+01 0.31573851103E+01 0.30590418718E+01 0.31573345143E+01 0.34573663081E+01
 0.39726989869E+01 0.47208825593E+01 0.57179217637E+01 0.69731780113E+01 0.84848266056E+01
 0.10234012746E+02 0.12174150610E+02 0.14194380300E+02 0.16086748942E+02 0.17635920067E+02
 0.18654694052E+02 0.19010467370E+02 0.18654565924E+02 0.15702197104E+02 0.14530528733E+02
 0.13056094325E+02 0.11411034717E+02 0.97826533101E+01 0.82884774792E+01 0.69731441349E+01
 0.58655696711E+01 0.49817776465E+01 0.43263873397E+01 0.38958004973E+01 0.36830910061E+01
 0.36831137900E+01 0.38958220744E+01 0.43263472193E+01 0.49817089727E+01 0.58655530556E+01
 0.69731780113E+01 0.82884795754E+01 0.97826025520E+01 0.11411025921E+02 0.13056199061E+02
 0.14530665385E+02 0.15702222893E+02 0.16503503590E+02 0.16908186822E+02 0.16908247669E+02
 0.16503593889E+02 0.13926177106E+02 0.13361926983E+02 0.12402738328E+02 0.11138736020E+02
 0.97825814194E+01 0.84849006337E+01 0.73093615752E+01 0.63042976875E+01 0.55024545082E+01
 0.49224558470E+01 0.45727193390E+01 0.44559897575E+01 0.45727495990E+01 0.49224716036E+01
 0.55024110269E+01 0.63041934998E+01 0.73092414279E+01 0.84848266056E+01 0.97826025520E+01
 0.11138864662E+02 0.12402927561E+02 0.13362074476E+02 0.13926189927E+02 0.14153469449E+02
 0.14192202146E+02 0.14185820927E+02 0.14192321312E+02 0.14153583353E+02 0.12851091957E+02
 0.12925225620E+02 0.12402926488E+02 0.11411036595E+02 0.10234060509E+02 0.90546689267E+01
 0.79605739329E+01 0.70181935950E+01 0.62745421733E+01 0.57616124472E+01 0.54999357469E+01
 0.54998800514E+01 0.57615118950E+01 0.62745043000E+01 0.70182249788E+01 0.79605904874E+01
 0.90546287441E+01 0.10234012746E+02 0.11411025921E+02 0.12402927561E+02 0.12925225261E+02
 0.12851171996E+02 0.12302772088E+02 0.11604229407E+02 0.11131187932E+02 0.11131042883E+02
 0.11603920991E+02 0.12302532002E+02 0.12851128115E+02 0.13362281611E+02 0.13056436609E+02
 0.12174254766E+02 0.11075403016E+02 0.99446948503E+01 0.88853858578E+01 0.79751810660E+01
 0.72746322923E+01 0.68319151286E+01 0.66802712722E+01 0.68318531452E+01 0.72745696102E+01
 0.79751882281E+01 0.88854819085E+01 0.99448225371E+01 0.11075456320E+02 0.12174150610E+02
 0.13056199061E+02 0.13362074476E+02 0.12851171996E+02 0.11598008622E+02 0.10015623363E+02
 0.87065259881E+01 0.82000436077E+01 0.87060878571E+01 0.10015034519E+02 0.11597614671E+02
 0.13926342059E+02 0.14530966419E+02 0.14194514617E+02 0.13297689865E+02 0.12206320879E+02
 0.11078648062E+02 0.10020580714E+02 0.91197929529E+01 0.84577566249E+01 0.81052956305E+01
 0.81053483267E+01 0.84578331910E+01 0.91197780418E+01 0.10020517389E+02 0.11078691670E+02
 0.12206497384E+02 0.13297805493E+02 0.14194380300E+02 0.14530665385E+02 0.13926189927E+02
 0.12302772088E+02 0.10015623363E+02 0.77813867660E+01 0.64011259343E+01 0.64009065920E+01
 0.77808515996E+01 0.10015083294E+02 0.12302540531E+02 0.15702507979E+02 0.16086829910E+02
 0.15576126551E+02 0.14627720660E+02 0.13513431869E+02 0.12360570940E+02 0.11274644164E+02
 0.10366893641E+02 0.97560170871E+01 0.95396124073E+01 0.97560287020E+01 0.10366888616E+02
 0.11274607480E+02 0.12360544315E+02 0.13513493443E+02 0.14627882818E+02 0.15576257516E+02
 0.16086748942E+02 0.15702222893E+02 0.14153469449E+02 0.11604229407E+02 0.87065259881E+01
 0.64011259343E+01 0.55215286201E+01 0.64005614951E+01 0.87058852182E+01 0.11603988182E+02
 0.14153659808E+02 0.17635986948E+02 0.17667662116E+02 0.17004501470E+02 0.16023145110E+02
 0.14874557892E+02 0.13664544191E+02 0.12517205687E+02 0.11591253318E+02 0.11065570277E+02
 0.11065495280E+02 0.11591148631E+02 0.12517238367E+02 0.13664663819E+02 0.14874592329E+02
 0.16023089539E+02 0.17004506893E+02 0.17667732506E+02 0.17635920067E+02 0.16503503590E+02
 0.14192202146E+02 0.11131187932E+02 0.82000436077E+01 0.64009065920E+01 0.64005614951E+01
 0.81993615874E+01 0.11130800812E+02 0.14192304034E+02 0.16503754771E+02 0.19281101001E+02
 0.19050580180E+02 0.18348814015E+02 0.17349885677E+02 0.16132390886E+02 0.14772475082E+02
 0.13451347286E+02 0.12465566878E+02 0.12098068580E+02 0.12465625840E+02 0.13451447934E+02
 0.14772548439E+02 0.16132361793E+02 0.17349774219E+02 0.18348725230E+02 0.19050568545E+02
 0.19281109571E+02 0.18654694052E+02 0.16908186822E+02 0.14185820927E+02 0.11131042883E+02
 0.87060878571E+01 0.77808515996E+01 0.87058852182E+01 0.11130800812E+02 0.14185698991E+02
 0.16908192978E+02 0.18654721851E+02 0.20449022925E+02 0.20168076734E+02 0.19485721583E+02
 0.18404904213E+02 0.16899049526E+02 0.15136216304E+02 0.13519213137E+02 0.12541007332E+02
 0.12541156042E+02 0.13519464078E+02 0.15136246973E+02 0.16898834334E+02 0.18404721174E+02
 0.19485764835E+02 0.20168231487E+02 0.20449080307E+02 0.20162811210E+02 0.19010467370E+02
 0.16908247669E+02 0.14192321312E+02 0.11603920991E+02 0.10015034519E+02 0.10015083294E+02
 0.11603988182E+02 0.14192304034E+02 0.16908192978E+02 0.19010483422E+02 0.20162860970E+02
 0.21173395264E+02 0.20947131754E+02 0.20162816379E+02 0.18654604472E+02 0.16503609942E+02
 0.14153591994E+02 0.12302627880E+02 0.11597830702E+02 0.12302756349E+02 0.14153698063E+02
 0.16503572968E+02 0.18654474300E+02 0.20162753774E+02 0.20947232897E+02 0.21173595844E+02
 0.20947272765E+02 0.20162836391E+02 0.18654565924E+02 0.16503593889E+02 0.14153583353E+02
 0.12302532002E+02 0.11597614671E+02 0.12302540531E+02 0.14153659808E+02 0.16503754771E+02
 0.18654721851E+02 0.20162860970E+02 0.20947131754E+02 0.20643183220E+02 0.19818288098E+02
 0.17691106146E+02 0.14446665053E+02 0.10840290165E+02 0.79902125842E+01 0.69048172647E+01
 0.79901755826E+01 0.10840284765E+02 0.14446740271E+02 0.17691233802E+02 0.19818400814E+02
 0.20643238422E+02 0.20449020057E+02 0.19690440369E+02 0.18604323834E+02 0.17266179202E+02
 0.15744806663E+02 0.14251944703E+02 0.13132330589E+02 0.12713952648E+02 0.13132126476E+02
 0.14251705703E+02 0.15744700353E+02 0.17266229043E+02 0.18604435231E+02 0.19690519723E+02
 0.20449033091E+02 0.19818288098E+02 0.17959739765E+02 0.14536125146E+02 0.10162492824E+02
 0.60421541150E+01 0.35320999866E+01 0.35323101419E+01 0.60425952932E+01 0.10162822705E+02
 0.14536221411E+02 0.17959738406E+02 0.19818299393E+02 0.20162754571E+02 0.19485572904E+02
 0.18348721509E+02 0.17004598728E+02 0.15576300971E+02 0.14194517086E+02 0.13056238140E+02
 0.12402786829E+02 0.12402845204E+02 0.13056293436E+02 0.14194408004E+02 0.15576102332E+02
 0.17004534645E+02 0.18348849717E+02 0.19485724466E+02 0.20162796417E+02 0.17691106146E+02
 0.14536125146E+02 0.98953672796E+01 0.48547011884E+01 0.92773703419E+00 -.55734594359E+00