       N       E                     dE             d eps       ncg     rms          rms(c)
DAV:   1    -0.194584337679E+01   -0.19458E+01   -0.22171E+03   912   0.437E+02
DAV:   2    -0.105417319506E+02   -0.85959E+01   -0.84013E+01  1400   0.584E+01
DAV:   3    -0.106090636613E+02   -0.67332E-01   -0.67332E-01  1120   0.641E+00
DAV:   4    -0.106092340339E+02   -0.17037E-03   -0.17037E-03  1496   0.271E-01
DAV:   5    -0.106092340601E+02   -0.26239E-07   -0.24433E-07  1136   0.324E-03    0.410E+00
DAV:   6    -0.101743583594E+02    0.43488E+00   -0.35626E-01   920   0.320E+00    0.222E+00
DAV:   7    -0.100171708141E+02    0.15719E+00   -0.44205E-01  1080   0.361E+00    0.241E-01
DAV:   8    -0.100173689254E+02   -0.19811E-03   -0.14085E-02   984   0.854E-01    0.118E-01
DAV:   9    -0.100167481757E+02    0.62075E-03   -0.17155E-03  1240   0.238E-01    0.118E-02
DAV:  10    -0.100167526570E+02   -0.44813E-05   -0.23584E-05   584   0.459E-02
   1 F= -.10016753E+02 E0= -.10015858E+02  d E =-.178976E-02
