diamond Si                              
   5.60000000000000     
     0.000000    0.490819    0.490819
     0.490819    0.000000    0.490819
     0.490819    0.490819    0.000000
   Si
     2
Direct
  0.875000  0.875000  0.875000
  0.125000  0.125000  0.125000
 
   32   32   32
 0.22432509602E+02 0.22404072959E+02 0.22266316009E+02 0.21874600140E+02 0.20995548869E+02
 0.19588088966E+02 0.17951238645E+02 0.16621048428E+02 0.16107928884E+02 0.16621059644E+02
 0.17951206540E+02 0.19587994929E+02 0.20995472933E+02 0.21874673477E+02 0.22266618417E+02
 0.22404574866E+02 0.22433088331E+02 0.22404574866E+02 0.22266618417E+02 0.21874673477E+02
 0.20995472933E+02 0.19587994929E+02 0.17951206540E+02 0.16621059644E+02 0.16107928884E+02
 0.16621048428E+02 0.17951238645E+02 0.19588088966E+02 0.20995548869E+02 0.21874600140E+02
 0.22266316009E+02 0.22404072959E+02 0.22404072959E+02 0.22768847282E+02 0.22829797595E+02
 0.22203378408E+02 0.20693007324E+02 0.18537932031E+02 0.16390515889E+02 0.15045629505E+02
 0.15045597300E+02 0.16390424199E+02 0.18537816549E+02 0.20692950824E+02 0.22203474683E+02
 0.22830090775E+02 0.22769305742E+02 0.22404597818E+02 0.21935542530E+02 0.21426928443E+02
 0.20845092565E+02 0.20111071662E+02 0.19137504619E+02 0.17970569337E+02 0.16872781397E+02
 0.16198856469E+02 0.16198829422E+02 0.16872741100E+02 0.17970598602E+02 0.19137635766E+02
 0.20111222158E+02 0.20845104416E+02 0.21426696678E+02 0.21935097977E+02 0.22266316009E+02
 0.22829797595E+02 0.22622205700E+02 0.21248730872E+02 0.18780917796E+02 0.15855574218E+02
 0.13474549795E+02 0.12556785861E+02 0.13474394736E+02 0.15855362746E+02 0.18780779795E+02
 0.21248758419E+02 0.22622425301E+02 0.22830164802E+02 0.22266721077E+02 0.21427001353E+02
 0.20525775898E+02 0.19632211758E+02 0.18733463457E+02 0.17799133889E+02 0.16842778615E+02
 0.15945223661E+02 0.15281431295E+02 0.15034383093E+02 0.15281332440E+02 0.15945141104E+02
 0.16842829005E+02 0.17799325181E+02 0.18733687016E+02 0.19632320693E+02 0.20525674183E+02
 0.21426696678E+02 0.21874600140E+02 0.22203378408E+02 0.21248730872E+02 0.18839665769E+02
 0.15444199114E+02 0.12102490405E+02 0.10025219985E+02 0.10025104566E+02 0.12102226773E+02
 0.15443964332E+02 0.18839597368E+02 0.21248853107E+02 0.22203623656E+02 0.21874860414E+02
 0.20845274445E+02 0.19632333704E+02 0.18424763190E+02 0.17288729429E+02 0.16228622242E+02
 0.15244977929E+02 0.14377722882E+02 0.13711818427E+02 0.13345151911E+02 0.13345068902E+02
 0.13711648356E+02 0.14377625836E+02 0.15245051387E+02 0.16228836226E+02 0.17288969084E+02
 0.18424910227E+02 0.19632320693E+02 0.20845104416E+02 0.20995548869E+02 0.20693007324E+02
 0.18780917796E+02 0.15444199114E+02 0.11561178155E+02 0.84349578554E+01 0.72360483402E+01
 0.84347405418E+01 0.11560935547E+02 0.15444120554E+02 0.18781025775E+02 0.20693189175E+02
 0.20995696774E+02 0.20111297477E+02 0.18733681845E+02 0.17288874920E+02 0.15923548955E+02
 0.14694936675E+02 0.13616633180E+02 0.12702242627E+02 0.11987960889E+02 0.11527121227E+02
 0.11367182149E+02 0.11527009536E+02 0.11987804506E+02 0.12702143807E+02 0.13616662465E+02
 0.14695075675E+02 0.15923707195E+02 0.17288969084E+02 0.18733687016E+02 0.20111222158E+02
 0.19588088966E+02 0.18537932031E+02 0.15855574218E+02 0.12102490405E+02 0.84349578554E+01
 0.61655529984E+01 0.61654650923E+01 0.84348062128E+01 0.12102474525E+02 0.15855751250E+02
 0.18538179086E+02 0.19588265311E+02 0.19137709005E+02 0.17799338855E+02 0.16228827926E+02
 0.14695064359E+02 0.13308404180E+02 0.12112588899E+02 0.11121042448E+02 0.10345746494E+02
 0.98075997851E+01 0.95306129346E+01 0.95305786915E+01 0.98075024336E+01 0.10345610607E+02
 0.11120915803E+02 0.12112515466E+02 0.13308388731E+02 0.14695075675E+02 0.16228836226E+02
 0.17799325181E+02 0.19137635766E+02 0.17951238645E+02 0.16390515889E+02 0.13474549795E+02
 0.10025219985E+02 0.72360483402E+01 0.61654650923E+01 0.72360444317E+01 0.10025323646E+02
 0.13474824828E+02 0.16390876108E+02 0.17951530147E+02 0.17970754150E+02 0.16842903725E+02
 0.15245132862E+02 0.13616788027E+02 0.12112671793E+02 0.10808451190E+02 0.97311910435E+01
 0.88866978675E+01 0.82775465125E+01 0.79085963914E+01 0.77849052813E+01 0.79085579134E+01
 0.82774643056E+01 0.88865736676E+01 0.97310386622E+01 0.10808287839E+02 0.12112515466E+02
 0.13616662465E+02 0.15245051387E+02 0.16842829005E+02 0.17970598602E+02 0.16621048428E+02
 0.15045629505E+02 0.12556785861E+02 0.10025104566E+02 0.84347405418E+01 0.84348062128E+01
 0.10025323646E+02 0.12557169138E+02 0.15046095251E+02 0.16621446240E+02 0.16872979248E+02
 0.15945266105E+02 0.14377753269E+02 0.12702332431E+02 0.11121134301E+02 0.97312335343E+01
 0.85753844281E+01 0.76626364877E+01 0.69876872397E+01 0.65426882692E+01 0.63217276067E+01
 0.63217471044E+01 0.65427155933E+01 0.69876679656E+01 0.76625493547E+01 0.85752380403E+01
 0.97310386622E+01 0.11120915803E+02 0.12702143807E+02 0.14377625836E+02 0.15945141104E+02
 0.16872741100E+02 0.16107928884E+02 0.15045597300E+02 0.13474394736E+02 0.12102226773E+02
 0.11560935547E+02 0.12102474525E+02 0.13474824828E+02 0.15046095251E+02 0.16108369893E+02
 0.16199131992E+02 0.15281495447E+02 0.13711740821E+02 0.11987909618E+02 0.10345763913E+02
 0.88867422170E+01 0.76626636370E+01 0.66873689622E+01 0.59530236290E+01 0.54439783113E+01
 0.51453230782E+01 0.50469817890E+01 0.51454135948E+01 0.54441069563E+01 0.59531130372E+01
 0.66873595238E+01 0.76625493547E+01 0.88865736676E+01 0.10345610607E+02 0.11987804506E+02
 0.13711648356E+02 0.15281332440E+02 0.16198829422E+02 0.16621059644E+02 0.16390424199E+02
 0.15855362746E+02 0.15443964332E+02 0.15444120554E+02 0.15855751250E+02 0.16390876108E+02
 0.16621446240E+02 0.16199131992E+02 0.15034540532E+02 0.13345113596E+02 0.11526985759E+02
 0.98074926175E+01 0.82775109123E+01 0.69877142605E+01 0.59530627652E+01 0.51640773002E+01
 0.45997816665E+01 0.42380168244E+01 0.40616917359E+01 0.40617421515E+01 0.42381642048E+01
 0.45999860522E+01 0.51642444498E+01 0.59531130372E+01 0.69876679656E+01 0.82774643056E+01
 0.98075024336E+01 0.11527009536E+02 0.13345068902E+02 0.15034383093E+02 0.16198856469E+02
 0.17951206540E+02 0.18537816549E+02 0.18780779795E+02 0.18839597368E+02 0.18781025775E+02
 0.18538179086E+02 0.17951530147E+02 0.16872979248E+02 0.15281495447E+02 0.13345113596E+02
 0.11367083711E+02 0.95304679856E+01 0.79084689980E+01 0.65426453552E+01 0.54440194030E+01
 0.45998508366E+01 0.39842567478E+01 0.35686961643E+01 0.33294449537E+01 0.32514327389E+01
 0.33295460661E+01 0.35688620340E+01 0.39844307485E+01 0.45999860522E+01 0.54441069563E+01
 0.65427155933E+01 0.79085579134E+01 0.95305786915E+01 0.11367182149E+02 0.13345151911E+02
 0.15281431295E+02 0.16872781397E+02 0.19587994929E+02 0.20692950824E+02 0.21248758419E+02
 0.21248853107E+02 0.20693189175E+02 0.19588265311E+02 0.17970754150E+02 0.15945266105E+02
 0.13711740821E+02 0.11526985759E+02 0.95304679856E+01 0.77847662283E+01 0.63216212131E+01
 0.51453153938E+01 0.42380966879E+01 0.35688001663E+01 0.31026858900E+01 0.28095394959E+01
 0.26682642428E+01 0.26683021631E+01 0.28096247476E+01 0.31027674984E+01 0.35688620340E+01
 0.42381642048E+01 0.51454135948E+01 0.63217471044E+01 0.77849052813E+01 0.95306129346E+01
 0.11527121227E+02 0.13711818427E+02 0.15945223661E+02 0.17970569337E+02 0.20995472933E+02
 0.22203474683E+02 0.22622425301E+02 0.22203623656E+02 0.20995696774E+02 0.19137709005E+02
 0.16842903725E+02 0.14377753269E+02 0.11987909618E+02 0.98074926175E+01 0.79084689980E+01
 0.63216212131E+01 0.50469240011E+01 0.40617357662E+01 0.33295746174E+01 0.28096678063E+01
 0.24653657086E+01 0.22694415740E+01 0.22058580053E+01 0.22694167523E+01 0.24653250018E+01
 0.28096247476E+01 0.33295460661E+01 0.40617421515E+01 0.50469817890E+01 0.63217276067E+01
 0.79085963914E+01 0.98075997851E+01 0.11987960889E+02 0.14377722882E+02 0.16842778615E+02
 0.19137504619E+02 0.21874673477E+02 0.22830090775E+02 0.22830164802E+02 0.21874860414E+02
 0.20111297477E+02 0.17799338855E+02 0.15245132862E+02 0.12702332431E+02 0.10345763913E+02
 0.82775109123E+01 0.65426453552E+01 0.51453153938E+01 0.40617357662E+01 0.32515252157E+01
 0.26684349801E+01 0.22695698340E+01 0.20214956002E+01 0.19025695044E+01 0.19025181059E+01
 0.20213663473E+01 0.22694167523E+01 0.26683021631E+01 0.32514327389E+01 0.40616917359E+01
 0.51453230782E+01 0.65426882692E+01 0.82775465125E+01 0.10345746494E+02 0.12702242627E+02
 0.15244977929E+02 0.17799133889E+02 0.20111071662E+02 0.22266618417E+02 0.22769305742E+02
 0.22266721077E+02 0.20845274445E+02 0.18733681845E+02 0.16228827926E+02 0.13616788027E+02
 0.11121134301E+02 0.88867422170E+01 0.69877142605E+01 0.54440194030E+01 0.42380966879E+01
 0.33295746174E+01 0.26684349801E+01 0.22060406090E+01 0.19026718846E+01 0.17308396200E+01
 0.16751496813E+01 0.17307519693E+01 0.19025181059E+01 0.22058580053E+01 0.26682642428E+01
 0.33294449537E+01 0.42380168244E+01 0.54439783113E+01 0.69876872397E+01 0.88866978675E+01
 0.11121042448E+02 0.13616633180E+02 0.16228622242E+02 0.18733463457E+02 0.20845092565E+02
 0.22404574866E+02 0.22404597818E+02 0.21427001353E+02 0.19632333704E+02 0.17288874920E+02
 0.14695064359E+02 0.12112671793E+02 0.97312335343E+01 0.76626636370E+01 0.59530627652E+01
 0.45998508366E+01 0.35688001663E+01 0.28096678063E+01 0.22695698340E+01 0.19026718846E+01
 0.16752116968E+01 0.15662905669E+01 0.15662703847E+01 0.16751496813E+01 0.19025695044E+01
 0.22694415740E+01 0.28095394959E+01 0.35686961643E+01 0.45997816665E+01 0.59530236290E+01
 0.76626364877E+01 0.97311910435E+01 0.12112588899E+02 0.14694936675E+02 0.17288729429E+02
 0.19632211758E+02 0.21426928443E+02 0.22433088331E+02 0.21935542530E+02 0.20525775898E+02
 0.18424763190E+02 0.15923548955E+02 0.13308404180E+02 0.10808451190E+02 0.85753844281E+01
 0.66873689622E+01 0.51640773002E+01 0.39842567478E+01 0.31026858900E+01 0.24653657086E+01
 0.20214956002E+01 0.17308396200E+01 0.15662905669E+01 0.15129848758E+01 0.15662905669E+01
 0.17308396200E+01 0.20214956002E+01 0.24653657086E+01 0.31026858900E+01 0.39842567478E+01
 0.51640773002E+01 0.66873689622E+01 0.85753844281E+01 0.10808451190E+02 0.13308404180E+02
 0.15923548955E+02 0.18424763190E+02 0.20525775898E+02 0.21935542530E+02 0.22404574866E+02
 0.21426928443E+02 0.19632211758E+02 0.17288729429E+02 0.14694936675E+02 0.12112588899E+02
 0.97311910435E+01 0.76626364877E+01 0.59530236290E+01 0.45997816665E+01 0.35686961643E+01
 0.28095394959E+01 0.22694415740E+01 0.19025695044E+01 0.16751496813E+01 0.15662703847E+01
 0.15662905669E+01 0.16752116968E+01 0.19026718846E+01 0.22695698340E+01 0.28096678063E+01
 0.35688001663E+01 0.45998508366E+01 0.59530627652E+01 0.76626636370E+01 0.97312335343E+01
 0.12112671793E+02 0.14695064359E+02 0.17288874920E+02 0.19632333704E+02 0.21427001353E+02
 0.22404597818E+02 0.22266618417E+02 0.20845092565E+02 0.18733463457E+02 0.16228622242E+02
 0.13616633180E+02 0.11121042448E+02 0.88866978675E+01 0.69876872397E+01 0.54439783113E+01
 0.42380168244E+01 0.33294449537E+01 0.26682642428E+01 0.22058580053E+01 0.19025181059E+01
 0.17307519693E+01 0.16751496813E+01 0.17308396200E+01 0.19026718846E+01 0.22060406090E+01
 0.26684349801E+01 0.33295746174E+01 0.42380966879E+01 0.54440194030E+01 0.69877142605E+01
 0.88867422170E+01 0.11121134301E+02 0.13616788027E+02 0.16228827926E+02 0.18733681845E+02
 0.20845274445E+02 0.22266721077E+02 0.22769305742E+02 0.21874673477E+02 0.20111071662E+02
 0.17799133889E+02 0.15244977929E+02 0.12702242627E+02 0.10345746494E+02 0.82775465125E+01
 0.65426882692E+01 0.51453230782E+01 0.40616917359E+01 0.32514327389E+01 0.26683021631E+01
 0.22694167523E+01 0.20213663473E+01 0.19025181059E+01 0.19025695044E+01 0.20214956002E+01
 0.22695698340E+01 0.26684349801E+01 0.32515252157E+01 0.40617357662E+01 0.51453153938E+01
 0.65426453552E+01 0.82775109123E+01 0.10345763913E+02 0.12702332431E+02 0.15245132862E+02
 0.17799338855E+02 0.20111297477E+02 0.21874860414E+02 0.22830164802E+02 0.22830090775E+02
 0.20995472933E+02 0.19137504619E+02 0.16842778615E+02 0.14377722882E+02 0.11987960889E+02
 0.98075997851E+01 0.79085963914E+01 0.63217276067E+01 0.50469817890E+01 0.40617421515E+01
 0.33295460661E+01 0.28096247476E+01 0.24653250018E+01 0.22694167523E+01 0.22058580053E+01
 0.22694415740E+01 0.24653657086E+01 0.28096678063E+01 0.33295746174E+01 0.40617357662E+01
 0.50469240011E+01 0.63216212131E+01 0.79084689980E+01 0.98074926175E+01 0.11987909618E+02
 0.14377753269E+02 0.16842903725E+02 0.19137709005E+02 0.20995696774E+02 0.22203623656E+02
 0.22622425301E+02 0.22203474683E+02 0.19587994929E+02 0.17970569337E+02 0.15945223661E+02
 0.13711818427E+02 0.11527121227E+02 0.95306129346E+01 0.77849052813E+01 0.63217471044E+01
 0.51454135948E+01 0.42381642048E+01 0.35688620340E+01 0.31027674984E+01 0.28096247476E+01
 0.26683021631E+01 0.26682642428E+01 0.28095394959E+01 0.31026858900E+01 0.35688001663E+01
 0.42380966879E+01 0.51453153938E+01 0.63216212131E+01 0.77847662283E+01 0.95304679856E+01
 0.11526985759E+02 0.13711740821E+02 0.15945266105E+02 0.17970754150E+02 0.19588265311E+02
 0.20693189175E+02 0.21248853107E+02 0.21248758419E+02 0.20692950824E+02 0.17951206540E+02
 0.16872781397E+02 0.15281431295E+02 0.13345151911E+02 0.11367182149E+02 0.95305786915E+01
 0.79085579134E+01 0.65427155933E+01 0.54441069563E+01 0.45999860522E+01 0.39844307485E+01
 0.35688620340E+01 0.33295460661E+01 0.32514327389E+01 0.33294449537E+01 0.35686961643E+01
 0.39842567478E+01 0.45998508366E+01 0.54440194030E+01 0.65426453552E+01 0.79084689980E+01
 0.95304679856E+01 0.11367083711E+02 0.13345113596E+02 0.15281495447E+02 0.16872979248E+02
 0.17951530147E+02 0.18538179086E+02 0.18781025775E+02 0.18839597368E+02 0.18780779795E+02
 0.18537816549E+02 0.16621059644E+02 0.16198856469E+02 0.15034383093E+02 0.13345068902E+02
 0.11527009536E+02 0.98075024336E+01 0.82774643056E+01 0.69876679656E+01 0.59531130372E+01
 0.51642444498E+01 0.45999860522E+01 0.42381642048E+01 0.40617421515E+01 0.40616917359E+01
 0.42380168244E+01 0.45997816665E+01 0.51640773002E+01 0.59530627652E+01 0.69877142605E+01
 0.82775109123E+01 0.98074926175E+01 0.11526985759E+02 0.13345113596E+02 0.15034540532E+02
 0.16199131992E+02 0.16621446240E+02 0.16390876108E+02 0.15855751250E+02 0.15444120554E+02
 0.15443964332E+02 0.15855362746E+02 0.16390424199E+02 0.16107928884E+02 0.16198829422E+02
 0.15281332440E+02 0.13711648356E+02 0.11987804506E+02 0.10345610607E+02 0.88865736676E+01
 0.76625493547E+01 0.66873595238E+01 0.59531130372E+01 0.54441069563E+01 0.51454135948E+01
 0.50469817890E+01 0.51453230782E+01 0.54439783113E+01 0.59530236290E+01 0.66873689622E+01
 0.76626636370E+01 0.88867422170E+01 0.10345763913E+02 0.11987909618E+02 0.13711740821E+02
 0.15281495447E+02 0.16199131992E+02 0.16108369893E+02 0.15046095251E+02 0.13474824828E+02
 0.12102474525E+02 0.11560935547E+02 0.12102226773E+02 0.13474394736E+02 0.15045597300E+02
 0.16621048428E+02 0.16872741100E+02 0.15945141104E+02 0.14377625836E+02 0.12702143807E+02
 0.11120915803E+02 0.97310386622E+01 0.85752380403E+01 0.76625493547E+01 0.69876679656E+01
 0.65427155933E+01 0.63217471044E+01 0.63217276067E+01 0.65426882692E+01 0.69876872397E+01
 0.76626364877E+01 0.85753844281E+01 0.97312335343E+01 0.11121134301E+02 0.12702332431E+02
 0.14377753269E+02 0.15945266105E+02 0.16872979248E+02 0.16621446240E+02 0.15046095251E+02
 0.12557169138E+02 0.10025323646E+02 0.84348062128E+01 0.84347405418E+01 0.10025104566E+02
 0.12556785861E+02 0.15045629505E+02 0.17951238645E+02 0.17970598602E+02 0.16842829005E+02
 0.15245051387E+02 0.13616662465E+02 0.12112515466E+02 0.10808287839E+02 0.97310386622E+01
 0.88865736676E+01 0.82774643056E+01 0.79085579134E+01 0.77849052813E+01 0.79085963914E+01
 0.82775465125E+01 0.88866978675E+01 0.97311910435E+01 0.10808451190E+02 0.12112671793E+02
 0.13616788027E+02 0.15245132862E+02 0.16842903725E+02 0.17970754150E+02 0.17951530147E+02
 0.16390876108E+02 0.13474824828E+02 0.10025323646E+02 0.72360444317E+01 0.61654650923E+01
 0.72360483402E+01 0.10025219985E+02 0.13474549795E+02 0.16390515889E+02 0.19588088966E+02
 0.19137635766E+02 0.17799325181E+02 0.16228836226E+02 0.14695075675E+02 0.13308388731E+02
 0.12112515466E+02 0.11120915803E+02 0.10345610607E+02 0.98075024336E+01 0.95305786915E+01
 0.95306129346E+01 0.98075997851E+01 0.10345746494E+02 0.11121042448E+02 0.12112588899E+02
 0.13308404180E+02 0.14695064359E+02 0.16228827926E+02 0.17799338855E+02 0.19137709005E+02
 0.19588265311E+02 0.18538179086E+02 0.15855751250E+02 0.12102474525E+02 0.84348062128E+01
 0.61654650923E+01 0.61655529984E+01 0.84349578554E+01 0.12102490405E+02 0.15855574218E+02
 0.18537932031E+02 0.20995548869E+02 0.20111222158E+02 0.18733687016E+02 0.17288969084E+02
 0.15923707195E+02 0.14695075675E+02 0.13616662465E+02 0.12702143807E+02 0.11987804506E+02
 0.11527009536E+02 0.11367182149E+02 0.11527121227E+02 0.11987960889E+02 0.12702242627E+02
 0.13616633180E+02 0.14694936675E+02 0.15923548955E+02 0.17288874920E+02 0.18733681845E+02
 0.20111297477E+02 0.20995696774E+02 0.20693189175E+02 0.18781025775E+02 0.15444120554E+02
 0.11560935547E+02 0.84347405418E+01 0.72360483402E+01 0.84349578554E+01 0.11561178155E+02
 0.15444199114E+02 0.18780917796E+02 0.20693007324E+02 0.21874600140E+02 0.20845104416E+02
 0.19632320693E+02 0.18424910227E+02 0.17288969084E+02 0.16228836226E+02 0.15245051387E+02
 0.14377625836E+02 0.13711648356E+02 0.13345068902E+02 0.13345151911E+02 0.13711818427E+02
 0.14377722882E+02 0.15244977929E+02 0.16228622242E+02 0.17288729429E+02 0.18424763190E+02
 0.19632333704E+02 0.20845274445E+02 0.21874860414E+02 0.22203623656E+02 0.21248853107E+02
 0.18839597368E+02 0.15443964332E+02 0.12102226773E+02 0.10025104566E+02 0.10025219985E+02
 0.12102490405E+02 0.15444199114E+02 0.18839665769E+02 0.21248730872E+02 0.22203378408E+02
 0.22266316009E+02 0.21426696678E+02 0.20525674183E+02 0.19632320693E+02 0.18733687016E+02
 0.17799325181E+02 0.16842829005E+02 0.15945141104E+02 0.15281332440E+02 0.15034383093E+02
 0.15281431295E+02 0.15945223661E+02 0.16842778615E+02 0.17799133889E+02 0.18733463457E+02
 0.19632211758E+02 0.20525775898E+02 0.21427001353E+02 0.22266721077E+02 0.22830164802E+02
 0.22622425301E+02 0.21248758419E+02 0.18780779795E+02 0.15855362746E+02 0.13474394736E+02
 0.12556785861E+02 0.13474549795E+02 0.15855574218E+02 0.18780917796E+02 0.21248730872E+02
 0.22622205700E+02 0.22829797595E+02 0.22404072959E+02 0.21935097977E+02 0.21426696678E+02
 0.20845104416E+02 0.20111222158E+02 0.19137635766E+02 0.17970598602E+02 0.16872741100E+02
 0.16198829422E+02 0.16198856469E+02 0.16872781397E+02 0.17970569337E+02 0.19137504619E+02
 0.20111071662E+02 0.20845092565E+02 0.21426928443E+02 0.21935542530E+02 0.22404597818E+02
 0.22769305742E+02 0.22830090775E+02 0.22203474683E+02 0.20692950824E+02 0.18537816549E+02
 0.16390424199E+02 0.15045597300E+02 0.15045629505E+02 0.16390515889E+02 0.18537932031E+02
 0.20693007324E+02 0.22203378408E+02 0.22829797595E+02 0.22768847282E+02 0.22404189935E+02
 0.22768714996E+02 0.22829518254E+02 0.22203138339E+02 0.20692927850E+02 0.18537991415E+02
 0.16390596926E+02 0.15045643917E+02 0.15045568087E+02 0.16390438121E+02 0.18537902695E+02
 0.20693041677E+02 0.22203499918E+02 0.22830065768E+02 0.22769290745E+02 0.22404605935E+02
 0.21935542715E+02 0.21426919748E+02 0.20845110703E+02 0.20111117456E+02 0.19137524465E+02
 0.17970530091E+02 0.16872722610E+02 0.16198836521E+02 0.16198842197E+02 0.16872716261E+02
 0.17970484030E+02 0.19137471225E+02 0.20111131128E+02 0.20845199944E+02 0.21426968973E+02
 0.21935389813E+02 0.22768714996E+02 0.23333863380E+02 0.23071989815E+02 0.21577766629E+02
 0.18935858611E+02 0.15822578450E+02 0.13295303907E+02 0.12322243822E+02 0.13295227598E+02
 0.15822479369E+02 0.18935861693E+02 0.21578016906E+02 0.23072531814E+02 0.23334561624E+02
 0.22769314376E+02 0.21906815881E+02 0.20982361315E+02 0.20067113210E+02 0.19145960222E+02
 0.18185273624E+02 0.17194281054E+02 0.16256512497E+02 0.15560128223E+02 0.15300547366E+02
 0.15560042973E+02 0.16256388214E+02 0.17194216696E+02 0.18185369345E+02 0.19146216942E+02
 0.20067384770E+02 0.20982426170E+02 0.21906528334E+02 0.22829518254E+02 0.23071989815E+02
 0.21874744603E+02 0.19073519859E+02 0.15204647061E+02 0.11429304898E+02 0.90913837523E+01
 0.90913753077E+01 0.11429265705E+02 0.15204591641E+02 0.19073562977E+02 0.21875034075E+02
 0.23072535268E+02 0.22830114180E+02 0.21770853587E+02 0.20497121180E+02 0.19230358186E+02
 0.18039749728E+02 0.16926635380E+02 0.15888673553E+02 0.14967872826E+02 0.14256241842E+02
 0.13861494021E+02 0.13861406830E+02 0.14256052853E+02 0.14967741523E+02 0.15888731874E+02
 0.16926911713E+02 0.18040147431E+02 0.19230676372E+02 0.20497142462E+02 0.21770493723E+02
 0.22203138339E+02 0.21577766629E+02 0.19073519859E+02 0.14944665358E+02 0.10238722301E+02
 0.64850962908E+01 0.50511015424E+01 0.64851567088E+01 0.10238753542E+02 0.14944631529E+02
 0.19073529910E+02 0.21577964041E+02 0.22203503348E+02 0.21396383721E+02 0.19942609343E+02
 0.18398283164E+02 0.16938571333E+02 0.15624416150E+02 0.14467355193E+02 0.13480364032E+02
 0.12704131833E+02 0.12200514209E+02 0.12025166922E+02 0.12200347261E+02 0.12703945459E+02
 0.13480316850E+02 0.14467511509E+02 0.15624741511E+02 0.16938948444E+02 0.18398525601E+02
 0.19942560033E+02 0.21396067047E+02 0.20692927850E+02 0.18935858611E+02 0.15204647061E+02
 0.10238722301E+02 0.54867700283E+01 0.25737447816E+01 0.25738411011E+01 0.54869579602E+01
 0.10238825366E+02 0.15204623345E+02 0.18935828172E+02 0.20692998311E+02 0.20570079764E+02
 0.19252289417E+02 0.17563811746E+02 0.15902512144E+02 0.14397154102E+02 0.13096057389E+02
 0.12012569750E+02 0.11160177447E+02 0.10564794036E+02 0.10256933205E+02 0.10256875812E+02
 0.10564667269E+02 0.11160077174E+02 0.12012570318E+02 0.13096176726E+02 0.14397356643E+02
 0.15902714284E+02 0.17563909617E+02 0.19252236788E+02 0.20569951002E+02 0.18537991415E+02
 0.15822578450E+02 0.11429304898E+02 0.64850962908E+01 0.25737447816E+01 0.10856471036E+01
 0.25739637211E+01 0.64853726818E+01 0.11429475921E+02 0.15822613999E+02 0.18537967790E+02
 0.19247346117E+02 0.18364198090E+02 0.16704698805E+02 0.14940280853E+02 0.13295587803E+02
 0.11862948336E+02 0.10674882560E+02 0.97388545093E+01 0.90598080163E+01 0.86464439231E+01
 0.85074592690E+01 0.86464208172E+01 0.90597675328E+01 0.97388035888E+01 0.10674830168E+02
 0.11862909231E+02 0.13295574184E+02 0.14940286533E+02 0.16704704564E+02 0.18364199729E+02
 0.19247361671E+02 0.16390596926E+02 0.13295303907E+02 0.90913837523E+01 0.50511015424E+01
 0.25738411011E+01 0.25739637211E+01 0.50514078006E+01 0.90917274207E+01 0.13295548646E+02
 0.16390697738E+02 0.17706684221E+02 0.17315145955E+02 0.15841096004E+02 0.14056558586E+02
 0.12334847930E+02 0.10804739685E+02 0.95238967681E+01 0.85070725628E+01 0.77512457813E+01
 0.72505049995E+01 0.70009881233E+01 0.70010112441E+01 0.72505470372E+01 0.77512483020E+01
 0.85069953255E+01 0.95237469573E+01 0.10804559653E+02 0.12334683070E+02 0.14056440913E+02
 0.15841041625E+02 0.17315143412E+02 0.17706676077E+02 0.15045643917E+02 0.12322243822E+02
 0.90913753077E+01 0.64851567088E+01 0.54869579602E+01 0.64853726818E+01 0.90917274207E+01
 0.12322613603E+02 0.15045929317E+02 0.16453199821E+02 0.16333027107E+02 0.15050988076E+02
 0.13287019264E+02 0.11528461151E+02 0.99336747976E+01 0.85795148781E+01 0.74921429233E+01
 0.66686010315E+01 0.60949618854E+01 0.57571647035E+01 0.56457021996E+01 0.57572427678E+01
 0.60950529409E+01 0.66686260231E+01 0.74920582614E+01 0.85793274477E+01 0.99334356614E+01
 0.11528245215E+02 0.13286882652E+02 0.15050922517E+02 0.16332958036E+02 0.16453040398E+02
 0.15045568087E+02 0.13295227598E+02 0.11429265705E+02 0.10238753542E+02 0.10238825366E+02
 0.11429475921E+02 0.13295548646E+02 0.15045929317E+02 0.15969384757E+02 0.15731043362E+02
 0.14474862530E+02 0.12702521413E+02 0.10905661140E+02 0.92590130647E+01 0.78448009188E+01
 0.66967399150E+01 0.58143132473E+01 0.51796723933E+01 0.47712025914E+01 0.45716267322E+01
 0.45716790086E+01 0.47713357149E+01 0.51798197406E+01 0.58143879775E+01 0.66966836980E+01
 0.78446333381E+01 0.92588274237E+01 0.10905548548E+02 0.12702484700E+02 0.14474810451E+02
 0.15730876151E+02 0.15969084421E+02 0.16390438121E+02 0.15822479369E+02 0.15204591641E+02
 0.14944631529E+02 0.15204623345E+02 0.15822613999E+02 0.16390697738E+02 0.16453199821E+02
 0.15731043362E+02 0.14261741278E+02 0.12383709754E+02 0.10507601330E+02 0.87950690250E+01
 0.73190635484E+01 0.61127437204E+01 0.51759088622E+01 0.44879625964E+01 0.40214765650E+01
 0.37521794623E+01 0.36642588251E+01 0.37522928212E+01 0.40216479920E+01 0.44881165917E+01
 0.51759926856E+01 0.61127514573E+01 0.73190339414E+01 0.87950597707E+01 0.10507643544E+02
 0.12383764090E+02 0.14261711009E+02 0.15730860132E+02 0.16452910704E+02 0.18537902695E+02
 0.18935861693E+02 0.19073562977E+02 0.19073529910E+02 0.18935828172E+02 0.18537967790E+02
 0.17706684221E+02 0.16333027107E+02 0.14474862530E+02 0.12383709754E+02 0.10370226859E+02
 0.85579430928E+01 0.70028167253E+01 0.57300709265E+01 0.47359846765E+01 0.39964334012E+01
 0.34787268438E+01 0.31521845763E+01 0.29945965737E+01 0.29946469961E+01 0.31522966952E+01
 0.34788367445E+01 0.39965287662E+01 0.47360920632E+01 0.57301924719E+01 0.70029312470E+01
 0.85580573938E+01 0.10370367039E+02 0.12383845991E+02 0.14474903852E+02 0.16332931434E+02
 0.17706538832E+02 0.20693041677E+02 0.21578016906E+02 0.21875034075E+02 0.21577964041E+02
 0.20692998311E+02 0.19247346117E+02 0.17315145955E+02 0.15050988076E+02 0.12702521413E+02
 0.10507601330E+02 0.85579430928E+01 0.68972535344E+01 0.55409095515E+01 0.44789859614E+01
 0.36826584168E+01 0.31140422325E+01 0.27363679990E+01 0.25211738605E+01 0.24513185128E+01
 0.25211816687E+01 0.27363789233E+01 0.31140674205E+01 0.36827213305E+01 0.44790932069E+01
 0.55410456493E+01 0.68974110604E+01 0.85581302395E+01 0.10507804710E+02 0.12702682860E+02
 0.15051055694E+02 0.17315139736E+02 0.19247342096E+02 0.22203499918E+02 0.23072531814E+02
 0.23072535268E+02 0.22203503348E+02 0.20570079764E+02 0.18364198090E+02 0.15841096004E+02
 0.13287019264E+02 0.10905661140E+02 0.87950690250E+01 0.70028167253E+01 0.55409095515E+01
 0.43945574959E+01 0.35301232557E+01 0.29046158062E+01 0.24755344877E+01 0.22083922951E+01
 0.20803058107E+01 0.20802678210E+01 0.22083062499E+01 0.24754527514E+01 0.29045678336E+01
 0.35301134007E+01 0.43945972372E+01 0.55410176933E+01 0.70029839169E+01 0.87952426119E+01
 0.10905785957E+02 0.13287083284E+02 0.15841123928E+02 0.18364214084E+02 0.20570086295E+02
 0.22830065768E+02 0.23334561624E+02 0.22830114180E+02 0.21396383721E+02 0.19252289417E+02
 0.16704698805E+02 0.14056558586E+02 0.11528461151E+02 0.92590130647E+01 0.73190635484E+01
 0.57300709265E+01 0.44789859614E+01 0.35301232557E+01 0.28363953836E+01 0.23499814082E+01
 0.20305764839E+01 0.18496629626E+01 0.17910419441E+01 0.18495759966E+01 0.20304303231E+01
 0.23498192847E+01 0.28362615951E+01 0.35300516291E+01 0.44789874011E+01 0.57301244975E+01
 0.73191250982E+01 0.92590446365E+01 0.11528453979E+02 0.14056527549E+02 0.16704653950E+02
 0.19252229417E+02 0.21396315749E+02 0.22769290745E+02 0.22769314376E+02 0.21770853587E+02
 0.19942609343E+02 0.17563811746E+02 0.14940280853E+02 0.12334847930E+02 0.99336747976E+01
 0.78448009188E+01 0.61127437204E+01 0.47359846765E+01 0.36826584168E+01 0.29046158062E+01
 0.23499814082E+01 0.19729068057E+01 0.17391127217E+01 0.16271683552E+01 0.16271357116E+01
 0.17390139705E+01 0.19727521899E+01 0.23498064395E+01 0.29044654190E+01 0.36825534200E+01
 0.47359133573E+01 0.61126855228E+01 0.78447478271E+01 0.99336242439E+01 0.12334786962E+02
 0.14940195128E+02 0.17563706024E+02 0.19942508912E+02 0.21770785077E+02 0.22404605935E+02
 0.21906815881E+02 0.20497121180E+02 0.18398283164E+02 0.15902512144E+02 0.13295587803E+02
 0.10804739685E+02 0.85795148781E+01 0.66967399150E+01 0.51759088622E+01 0.39964334012E+01
 0.31140422325E+01 0.24755344877E+01 0.20305764839E+01 0.17391127217E+01 0.15740712123E+01
 0.15205917261E+01 0.15740466058E+01 0.17390663565E+01 0.20305050645E+01 0.24754314137E+01
 0.31139143978E+01 0.39963061477E+01 0.51758065561E+01 0.66966661292E+01 0.85794559735E+01
 0.10804685002E+02 0.13295535920E+02 0.15902462336E+02 0.18398232023E+02 0.20497071942E+02
 0.21906783466E+02 0.21935542715E+02 0.20982361315E+02 0.19230358186E+02 0.16938571333E+02
 0.14397154102E+02 0.11862948336E+02 0.95238967681E+01 0.74921429233E+01 0.58143132473E+01
 0.44879625964E+01 0.34787268438E+01 0.27363679990E+01 0.22083922951E+01 0.18496629626E+01
 0.16271683552E+01 0.15205917261E+01 0.15206037941E+01 0.16272045455E+01 0.18497147753E+01
 0.22084350612E+01 0.27363752547E+01 0.34786943451E+01 0.44879100870E+01 0.58142636623E+01
 0.74921078326E+01 0.95238827554E+01 0.11862964902E+02 0.14397203056E+02 0.16938635088E+02
 0.19230409743E+02 0.20982387536E+02 0.21935549422E+02 0.21426919748E+02 0.20067113210E+02
 0.18039749728E+02 0.15624416150E+02 0.13096057389E+02 0.10674882560E+02 0.85070725628E+01
 0.66686010315E+01 0.51796723933E+01 0.40214765650E+01 0.31521845763E+01 0.25211738605E+01
 0.20803058107E+01 0.17910419441E+01 0.16271357116E+01 0.15740466058E+01 0.16272045455E+01
 0.17911608696E+01 0.20804515686E+01 0.25213237842E+01 0.31523091121E+01 0.40215453165E+01
 0.51796819447E+01 0.66685902290E+01 0.85070979356E+01 0.10674973318E+02 0.13096201922E+02
 0.15624585882E+02 0.18039920310E+02 0.20067259522E+02 0.21427007447E+02 0.21906781857E+02
 0.20845110703E+02 0.19145960222E+02 0.16926635380E+02 0.14467355193E+02 0.12012569750E+02
 0.97388545093E+01 0.77512457813E+01 0.60949618854E+01 0.47712025914E+01 0.37521794623E+01
 0.29945965737E+01 0.24513185128E+01 0.20802678210E+01 0.18495759966E+01 0.17390139705E+01
 0.17390663565E+01 0.18497147753E+01 0.20804515686E+01 0.24515068642E+01 0.29947602816E+01
 0.37522969456E+01 0.47712642536E+01 0.60949848142E+01 0.77512760923E+01 0.97389431972E+01
 0.12012740404E+02 0.14467592039E+02 0.16926895974E+02 0.19146195584E+02 0.20845275482E+02