       N       E                     dE             d eps       ncg     rms          rms(c)
DAV:   1    -0.250615758655E+01   -0.25062E+01   -0.21533E+03   904   0.431E+02
DAV:   2    -0.119915435408E+02   -0.94854E+01   -0.91332E+01  1408   0.576E+01
DAV:   3    -0.120990444819E+02   -0.10750E+00   -0.10750E+00  1224   0.736E+00
DAV:   4    -0.120993265655E+02   -0.28208E-03   -0.28208E-03  1352   0.392E-01
DAV:   5    -0.120993268539E+02   -0.28842E-06   -0.28842E-06  1200   0.925E-03    0.294E+00
DAV:   6    -0.119384195841E+02    0.16091E+00   -0.10401E-01  1072   0.160E+00    0.171E+00
DAV:   7    -0.118628140004E+02    0.75606E-01   -0.18387E-01  1072   0.217E+00    0.152E-01
DAV:   8    -0.118629568726E+02   -0.14287E-03   -0.48725E-03   976   0.506E-01    0.276E-02
DAV:   9    -0.118629250219E+02    0.31851E-04   -0.15025E-04  1176   0.763E-02
   1 F= -.11862925E+02 E0= -.11862925E+02  d E =-.140247E-06
