LAMMPS data file via write_data, version 17 Nov 2016, timestep = 20

2 atoms
1 atom types

-5.0000000000000000e+00 5.0000000000000000e+00 xlo xhi
-5.0000000000000000e+00 5.0000000000000000e+00 ylo yhi
-5.0000000000000000e+00 5.0000000000000000e+00 zlo zhi

Masses

1 1

Pair Coeffs # morse

1 1 5 1.12

Atoms # atomic

2 1 5.6000000000508321e-01 0.0000000000000000e+00 0.0000000000000000e+00 0 0 0
1 1 -5.6000000000508321e-01 0.0000000000000000e+00 0.0000000000000000e+00 0 0 0

Velocities

2 -4.9693980585222097e-01 -1.5219603587789426e-01 -1.2500645133203603e+00
1 -2.2386540111045608e-01 -7.0514407518698030e-01 -7.8732586898570456e-01
