diamond Si                              
   4.50000000000000     
     0.000000    0.490819    0.490819
     0.490819    0.000000    0.490819
     0.490819    0.490819    0.000000
   Si
     2
Direct
  0.875000  0.875000  0.875000
  0.125000  0.125000  0.125000
 
   24   24   24
 0.20341385080E+02 0.19841381256E+02 0.18265837695E+02 0.15726378722E+02 0.12796894574E+02
 0.10420951136E+02 0.95035799275E+01 0.10420302350E+02 0.12796349592E+02 0.15726401772E+02
 0.18266026462E+02 0.19841149502E+02 0.20340851675E+02 0.19841149502E+02 0.18266026462E+02
 0.15726401772E+02 0.12796349592E+02 0.10420302350E+02 0.95035799275E+01 0.10420951136E+02
 0.12796894574E+02 0.15726378722E+02 0.18265837695E+02 0.19841381256E+02 0.19841381256E+02
 0.18704208984E+02 0.16211901334E+02 0.12769406767E+02 0.93688427862E+01 0.72403016864E+01
 0.72399315679E+01 0.93682000099E+01 0.12769185959E+02 0.16212050483E+02 0.18704188475E+02
 0.19841058207E+02 0.19759200253E+02 0.18779341388E+02 0.17031608525E+02 0.14788836464E+02
 0.12638830532E+02 0.11309080129E+02 0.11309265492E+02 0.12639263421E+02 0.14789230543E+02
 0.17031786226E+02 0.18779459438E+02 0.19759492396E+02 0.18265837695E+02 0.16211901334E+02
 0.12736783721E+02 0.86721326721E+01 0.53664250921E+01 0.40902104358E+01 0.53655389402E+01
 0.86712090889E+01 0.12736576403E+02 0.16212274800E+02 0.18266037141E+02 0.18779063350E+02
 0.18150251448E+02 0.16880228416E+02 0.15209976338E+02 0.13461161162E+02 0.12107169015E+02
 0.11594347450E+02 0.12107239945E+02 0.13461184143E+02 0.15210052735E+02 0.16880631735E+02
 0.18150914072E+02 0.18779459438E+02 0.15726378722E+02 0.12769406767E+02 0.86721326721E+01
 0.46411640529E+01 0.21288127549E+01 0.21282367110E+01 0.46400100361E+01 0.86715066216E+01
 0.12769724400E+02 0.15726906259E+02 0.17031592806E+02 0.16879794871E+02 0.15866159040E+02
 0.14506182473E+02 0.13072150681E+02 0.11844078505E+02 0.11126654946E+02 0.11126779461E+02
 0.11844164603E+02 0.13071945041E+02 0.14506128448E+02 0.15866753854E+02 0.16880631735E+02
 0.17031786226E+02 0.12796894574E+02 0.93688427862E+01 0.53664250921E+01 0.21288127549E+01
 0.88381266649E+00 0.21287811215E+01 0.53664048213E+01 0.93688937624E+01 0.12797020109E+02
 0.14789312661E+02 0.15209918060E+02 0.14505734240E+02 0.13321640723E+02 0.12038501502E+02
 0.10895053422E+02 0.10102150108E+02 0.98173211591E+01 0.10102007283E+02 0.10895009800E+02
 0.12038752120E+02 0.13322101797E+02 0.14506128448E+02 0.15210052735E+02 0.14789230543E+02
 0.10420951136E+02 0.72403016864E+01 0.40902104358E+01 0.21282367110E+01 0.21287811215E+01
 0.40912838749E+01 0.72409419102E+01 0.10420958307E+02 0.12639232498E+02 0.13461459944E+02
 0.13072079823E+02 0.12038263915E+02 0.10852723227E+02 0.97507542668E+01 0.89072054618E+01
 0.84501936205E+01 0.84498800735E+01 0.89067685366E+01 0.97509586065E+01 0.10853471233E+02
 0.12038752120E+02 0.13071945041E+02 0.13461184143E+02 0.12639263421E+02 0.95035799275E+01
 0.72399315679E+01 0.53655389402E+01 0.46400100361E+01 0.53664048213E+01 0.72409419102E+01
 0.95041204208E+01 0.11309366984E+02 0.12107250442E+02 0.11844216117E+02 0.10895002377E+02
 0.97508623525E+01 0.86597298887E+01 0.77739426429E+01 0.72006078457E+01 0.70025800973E+01
 0.72005458047E+01 0.77739158867E+01 0.86598015355E+01 0.97509586065E+01 0.10895009800E+02
 0.11844164603E+02 0.12107239945E+02 0.11309265492E+02 0.10420302350E+02 0.93682000099E+01
 0.86712090889E+01 0.86715066216E+01 0.93688937624E+01 0.10420958307E+02 0.11309366984E+02
 0.11594267498E+02 0.11126634061E+02 0.10102122586E+02 0.89071716650E+01 0.77742779311E+01
 0.68267279122E+01 0.61527250252E+01 0.58044465944E+01 0.58046305439E+01 0.61530326768E+01
 0.68267390648E+01 0.77739158867E+01 0.89067685366E+01 0.10102007283E+02 0.11126779461E+02
 0.11594347450E+02 0.11309080129E+02 0.12796349592E+02 0.12769185959E+02 0.12736576403E+02
 0.12769724400E+02 0.12797020109E+02 0.12639232498E+02 0.12107250442E+02 0.11126634061E+02
 0.98173668616E+01 0.84499623760E+01 0.72005708595E+01 0.61529991557E+01 0.53704214778E+01
 0.48902440408E+01 0.47288262752E+01 0.48902443650E+01 0.53704489762E+01 0.61530326768E+01
 0.72005458047E+01 0.84498800735E+01 0.98173211591E+01 0.11126654946E+02 0.12107169015E+02
 0.12638830532E+02 0.15726401772E+02 0.16212050483E+02 0.16212274800E+02 0.15726906259E+02
 0.14789312661E+02 0.13461459944E+02 0.11844216117E+02 0.10102122586E+02 0.84499623760E+01
 0.70022330035E+01 0.58043955777E+01 0.48902705026E+01 0.42781884116E+01 0.39727028836E+01
 0.39725985686E+01 0.42780012229E+01 0.48902443650E+01 0.58046305439E+01 0.70025800973E+01
 0.84501936205E+01 0.10102150108E+02 0.11844078505E+02 0.13461161162E+02 0.14788836464E+02
 0.18266026462E+02 0.18704188475E+02 0.18266037141E+02 0.17031592806E+02 0.15209918060E+02
 0.13072079823E+02 0.10895002377E+02 0.89071716650E+01 0.72005708595E+01 0.58043955777E+01
 0.47287651676E+01 0.39725389415E+01 0.35263923435E+01 0.33793073006E+01 0.35264311933E+01
 0.39725985686E+01 0.47288262752E+01 0.58044465944E+01 0.72006078457E+01 0.89072054618E+01
 0.10895053422E+02 0.13072150681E+02 0.15209976338E+02 0.17031608525E+02 0.19841149502E+02
 0.19841058207E+02 0.18779063350E+02 0.16879794871E+02 0.14505734240E+02 0.12038263915E+02
 0.97508623525E+01 0.77742779311E+01 0.61529991557E+01 0.48902705026E+01 0.39725389415E+01
 0.33791306485E+01 0.30891149028E+01 0.30891842334E+01 0.33793073006E+01 0.39727028836E+01
 0.48902440408E+01 0.61527250252E+01 0.77739426429E+01 0.97507542668E+01 0.12038501502E+02
 0.14506182473E+02 0.16880228416E+02 0.18779341388E+02 0.20340851675E+02 0.19759200253E+02
 0.18150251448E+02 0.15866159040E+02 0.13321640723E+02 0.10852723227E+02 0.86597298887E+01
 0.68267279122E+01 0.53704214778E+01 0.42781884116E+01 0.35263923435E+01 0.30891149028E+01
 0.29459510144E+01 0.30891149028E+01 0.35263923435E+01 0.42781884116E+01 0.53704214778E+01
 0.68267279122E+01 0.86597298887E+01 0.10852723227E+02 0.13321640723E+02 0.15866159040E+02
 0.18150251448E+02 0.19759200253E+02 0.19841149502E+02 0.18779341388E+02 0.16880228416E+02
 0.14506182473E+02 0.12038501502E+02 0.97507542668E+01 0.77739426429E+01 0.61527250252E+01
 0.48902440408E+01 0.39727028836E+01 0.33793073006E+01 0.30891842334E+01 0.30891149028E+01
 0.33791306485E+01 0.39725389415E+01 0.48902705026E+01 0.61529991557E+01 0.77742779311E+01
 0.97508623525E+01 0.12038263915E+02 0.14505734240E+02 0.16879794871E+02 0.18779063350E+02
 0.19841058207E+02 0.18266026462E+02 0.17031608525E+02 0.15209976338E+02 0.13072150681E+02
 0.10895053422E+02 0.89072054618E+01 0.72006078457E+01 0.58044465944E+01 0.47288262752E+01
 0.39725985686E+01 0.35264311933E+01 0.33793073006E+01 0.35263923435E+01 0.39725389415E+01
 0.47287651676E+01 0.58043955777E+01 0.72005708595E+01 0.89071716650E+01 0.10895002377E+02
 0.13072079823E+02 0.15209918060E+02 0.17031592806E+02 0.18266037141E+02 0.18704188475E+02
 0.15726401772E+02 0.14788836464E+02 0.13461161162E+02 0.11844078505E+02 0.10102150108E+02
 0.84501936205E+01 0.70025800973E+01 0.58046305439E+01 0.48902443650E+01 0.42780012229E+01
 0.39725985686E+01 0.39727028836E+01 0.42781884116E+01 0.48902705026E+01 0.58043955777E+01
 0.70022330035E+01 0.84499623760E+01 0.10102122586E+02 0.11844216117E+02 0.13461459944E+02
 0.14789312661E+02 0.15726906259E+02 0.16212274800E+02 0.16212050483E+02 0.12796349592E+02
 0.12638830532E+02 0.12107169015E+02 0.11126654946E+02 0.98173211591E+01 0.84498800735E+01
 0.72005458047E+01 0.61530326768E+01 0.53704489762E+01 0.48902443650E+01 0.47288262752E+01
 0.48902440408E+01 0.53704214778E+01 0.61529991557E+01 0.72005708595E+01 0.84499623760E+01
 0.98173668616E+01 0.11126634061E+02 0.12107250442E+02 0.12639232498E+02 0.12797020109E+02
 0.12769724400E+02 0.12736576403E+02 0.12769185959E+02 0.10420302350E+02 0.11309080129E+02
 0.11594347450E+02 0.11126779461E+02 0.10102007283E+02 0.89067685366E+01 0.77739158867E+01
 0.68267390648E+01 0.61530326768E+01 0.58046305439E+01 0.58044465944E+01 0.61527250252E+01
 0.68267279122E+01 0.77742779311E+01 0.89071716650E+01 0.10102122586E+02 0.11126634061E+02
 0.11594267498E+02 0.11309366984E+02 0.10420958307E+02 0.93688937624E+01 0.86715066216E+01
 0.86712090889E+01 0.93682000099E+01 0.95035799275E+01 0.11309265492E+02 0.12107239945E+02
 0.11844164603E+02 0.10895009800E+02 0.97509586065E+01 0.86598015355E+01 0.77739158867E+01
 0.72005458047E+01 0.70025800973E+01 0.72006078457E+01 0.77739426429E+01 0.86597298887E+01
 0.97508623525E+01 0.10895002377E+02 0.11844216117E+02 0.12107250442E+02 0.11309366984E+02
 0.95041204208E+01 0.72409419102E+01 0.53664048213E+01 0.46400100361E+01 0.53655389402E+01
 0.72399315679E+01 0.10420951136E+02 0.12639263421E+02 0.13461184143E+02 0.13071945041E+02
 0.12038752120E+02 0.10853471233E+02 0.97509586065E+01 0.89067685366E+01 0.84498800735E+01
 0.84501936205E+01 0.89072054618E+01 0.97507542668E+01 0.10852723227E+02 0.12038263915E+02
 0.13072079823E+02 0.13461459944E+02 0.12639232498E+02 0.10420958307E+02 0.72409419102E+01
 0.40912838749E+01 0.21287811215E+01 0.21282367110E+01 0.40902104358E+01 0.72403016864E+01
 0.12796894574E+02 0.14789230543E+02 0.15210052735E+02 0.14506128448E+02 0.13322101797E+02
 0.12038752120E+02 0.10895009800E+02 0.10102007283E+02 0.98173211591E+01 0.10102150108E+02
 0.10895053422E+02 0.12038501502E+02 0.13321640723E+02 0.14505734240E+02 0.15209918060E+02
 0.14789312661E+02 0.12797020109E+02 0.93688937624E+01 0.53664048213E+01 0.21287811215E+01
 0.88381266649E+00 0.21288127549E+01 0.53664250921E+01 0.93688427862E+01 0.15726378722E+02
 0.17031786226E+02 0.16880631735E+02 0.15866753854E+02 0.14506128448E+02 0.13071945041E+02
 0.11844164603E+02 0.11126779461E+02 0.11126654946E+02 0.11844078505E+02 0.13072150681E+02
 0.14506182473E+02 0.15866159040E+02 0.16879794871E+02 0.17031592806E+02 0.15726906259E+02
 0.12769724400E+02 0.86715066216E+01 0.46400100361E+01 0.21282367110E+01 0.21288127549E+01
 0.46411640529E+01 0.86721326721E+01 0.12769406767E+02 0.18265837695E+02 0.18779459438E+02
 0.18150914072E+02 0.16880631735E+02 0.15210052735E+02 0.13461184143E+02 0.12107239945E+02
 0.11594347450E+02 0.12107169015E+02 0.13461161162E+02 0.15209976338E+02 0.16880228416E+02
 0.18150251448E+02 0.18779063350E+02 0.18266037141E+02 0.16212274800E+02 0.12736576403E+02
 0.86712090889E+01 0.53655389402E+01 0.40902104358E+01 0.53664250921E+01 0.86721326721E+01
 0.12736783721E+02 0.16211901334E+02 0.19841381256E+02 0.19759492396E+02 0.18779459438E+02
 0.17031786226E+02 0.14789230543E+02 0.12639263421E+02 0.11309265492E+02 0.11309080129E+02
 0.12638830532E+02 0.14788836464E+02 0.17031608525E+02 0.18779341388E+02 0.19759200253E+02
 0.19841058207E+02 0.18704188475E+02 0.16212050483E+02 0.12769185959E+02 0.93682000099E+01
 0.72399315679E+01 0.72403016864E+01 0.93688427862E+01 0.12769406767E+02 0.16211901334E+02
 0.18704208984E+02 0.19840717544E+02 0.18704638758E+02 0.16212713527E+02 0.12769674353E+02
 0.93685846054E+01 0.72404093203E+01 0.72408493959E+01 0.93692306581E+01 0.12769470181E+02
 0.16211717202E+02 0.18703957044E+02 0.19841106475E+02 0.19759166080E+02 0.18779224966E+02
 0.17031837555E+02 0.14789387341E+02 0.12639044737E+02 0.11308612965E+02 0.11308639190E+02
 0.12639115237E+02 0.14789382852E+02 0.17031458561E+02 0.18778290189E+02 0.19758077063E+02
 0.18704638758E+02 0.16486803478E+02 0.12774112816E+02 0.84509572050E+01 0.49431057030E+01
 0.35907558295E+01 0.49434643707E+01 0.84511195542E+01 0.12773559995E+02 0.16485726199E+02
 0.18703909146E+02 0.19293278938E+02 0.18664871537E+02 0.17346990791E+02 0.15600770183E+02
 0.13765854512E+02 0.12342403684E+02 0.11802867514E+02 0.12342825798E+02 0.13766322227E+02
 0.15600707629E+02 0.17346169581E+02 0.18663853341E+02 0.19292988164E+02 0.16212713527E+02
 0.12774112816E+02 0.80881910576E+01 0.35128005229E+01 0.67143601477E+00 0.67118645020E+00
 0.35122296608E+01 0.80875733012E+01 0.12773455036E+02 0.16211896529E+02 0.17812633923E+02
 0.17769383363E+02 0.16726037000E+02 0.15282764100E+02 0.13739151988E+02 0.12405138597E+02
 0.11622154014E+02 0.11622515944E+02 0.12405699395E+02 0.13739056588E+02 0.15281982389E+02
 0.16725390783E+02 0.17769521304E+02 0.17813386315E+02 0.12769674353E+02 0.84509572050E+01
 0.35128005229E+01 -.44370852963E+00 -.19595745815E+01 -.44479370719E+00 0.35113386208E+01
 0.84499131955E+01 0.12769184874E+02 0.15418342433E+02 0.16193719862E+02 0.15580060492E+02
 0.14332368342E+02 0.12948757544E+02 0.11701748092E+02 0.10827863818E+02 0.10512277826E+02
 0.10828171263E+02 0.11701673907E+02 0.12948157856E+02 0.14331975118E+02 0.15580368397E+02
 0.16194331800E+02 0.15418774239E+02 0.93685846054E+01 0.49431057030E+01 0.67143601477E+00
 -.19595745815E+01 -.19602142870E+01 0.66994856725E+00 0.49416841870E+01 0.93678431026E+01
 0.12650471021E+02 0.14178211662E+02 0.14113017208E+02 0.13115223729E+02 0.11858818193E+02
 0.10662853452E+02 0.97348961846E+01 0.92284493813E+01 0.92283772887E+01 0.97347067420E+01
 0.10662677577E+02 0.11858857008E+02 0.13115505613E+02 0.14113298256E+02 0.14178310019E+02
 0.12650640604E+02 0.72404093203E+01 0.35907558295E+01 0.67118645020E+00 -.44479370719E+00
 0.66994856725E+00 0.35893778131E+01 0.72398095102E+01 0.10403872454E+02 0.12246893867E+02
 0.12595377910E+02 0.11864266761E+02 0.10717833883E+02 0.95676073933E+01 0.86102824454E+01
 0.79820622413E+01 0.77637175758E+01 0.79820640974E+01 0.86102630644E+01 0.95676018099E+01
 0.10717954762E+02 0.11864535461E+02 0.12595575007E+02 0.12246816485E+02 0.10403808685E+02
 0.72408493959E+01 0.49434643707E+01 0.35122296608E+01 0.35113386208E+01 0.49416841870E+01
 0.72398095102E+01 0.95369204389E+01 0.11053084942E+02 0.11426963935E+02 0.10813843457E+02
 0.97196012712E+01 0.85831746684E+01 0.75932990745E+01 0.68732943791E+01 0.64970377533E+01
 0.64972504985E+01 0.68735638178E+01 0.75931456451E+01 0.85828402393E+01 0.97196661179E+01
 0.10814209162E+02 0.11426907592E+02 0.11052460173E+02 0.95366793063E+01 0.93692306581E+01
 0.84511195542E+01 0.80875733012E+01 0.84499131955E+01 0.93678431026E+01 0.10403872454E+02
 0.11053084942E+02 0.10985779673E+02 0.10206914018E+02 0.90355450680E+01 0.78430914207E+01
 0.67912924191E+01 0.59813021771E+01 0.54759000275E+01 0.53048327690E+01 0.54760147090E+01
 0.59812812626E+01 0.67911180001E+01 0.78430266704E+01 0.90356044671E+01 0.10206718277E+02
 0.10985195274E+02 0.11052693228E+02 0.10404410776E+02 0.12769470181E+02 0.12773559995E+02
 0.12773455036E+02 0.12769184874E+02 0.12650471021E+02 0.12246893867E+02 0.11426963935E+02
 0.10206914018E+02 0.87920828137E+01 0.74465337739E+01 0.62799925984E+01 0.53604020030E+01
 0.47323125756E+01 0.44156333466E+01 0.44155603488E+01 0.47322137602E+01 0.53604568180E+01
 0.62801596030E+01 0.74465808494E+01 0.87918913886E+01 0.10206648047E+02 0.11426889986E+02
 0.12247101464E+02 0.12650819072E+02 0.16211717202E+02 0.16485726199E+02 0.16211896529E+02
 0.15418342433E+02 0.14178211662E+02 0.12595377910E+02 0.10813843457E+02 0.90355450680E+01
 0.74465337739E+01 0.61047929678E+01 0.50430267445E+01 0.42823721726E+01 0.38287553059E+01
 0.36785281089E+01 0.38287877716E+01 0.42824230250E+01 0.50430809271E+01 0.61048635418E+01
 0.74466642427E+01 0.90357466155E+01 0.10814035488E+02 0.12595431920E+02 0.14178075147E+02
 0.15418103190E+02 0.18703957044E+02 0.18703909146E+02 0.17812633923E+02 0.16193719862E+02
 0.14113017208E+02 0.11864266761E+02 0.97196012712E+01 0.78430914207E+01 0.62799925984E+01
 0.50430267445E+01 0.41321470673E+01 0.35380572601E+01 0.32464580304E+01 0.32465372891E+01
 0.35382028446E+01 0.41322045987E+01 0.50429779191E+01 0.62799609040E+01 0.78431739018E+01
 0.97197643894E+01 0.11864423582E+02 0.14113141938E+02 0.16193839069E+02 0.17812744144E+02
 0.19841106475E+02 0.19293278938E+02 0.17769383363E+02 0.15580060492E+02 0.13115223729E+02
 0.10717833883E+02 0.85831746684E+01 0.67912924191E+01 0.53604020030E+01 0.42823721726E+01
 0.35380572601E+01 0.31044226610E+01 0.29623673155E+01 0.31044756547E+01 0.35381942373E+01
 0.42824931627E+01 0.53603037388E+01 0.67909535431E+01 0.85828899252E+01 0.10717930755E+02
 0.13115683649E+02 0.15580543446E+02 0.17769616769E+02 0.19293305833E+02 0.19759166080E+02
 0.18664871537E+02 0.16726037000E+02 0.14332368342E+02 0.11858818193E+02 0.95676073933E+01
 0.75932990745E+01 0.59813021771E+01 0.47323125756E+01 0.38287553059E+01 0.32464580304E+01
 0.29623673155E+01 0.29623254703E+01 0.32463919568E+01 0.38287525417E+01 0.47323569750E+01
 0.59813050790E+01 0.75932403583E+01 0.95675660654E+01 0.11858845655E+02 0.14332399266E+02
 0.16725978463E+02 0.18664745661E+02 0.19759099558E+02 0.18779224966E+02 0.17346990791E+02
 0.15282764100E+02 0.12948757544E+02 0.10662853452E+02 0.86102824454E+01 0.68732943791E+01
 0.54759000275E+01 0.44156333466E+01 0.36785281089E+01 0.32465372891E+01 0.31044756547E+01
 0.32463919568E+01 0.36782877699E+01 0.44154877445E+01 0.54760658307E+01 0.68737188007E+01
 0.86105894593E+01 0.10662705470E+02 0.12948220590E+02 0.15282216226E+02 0.17346709289E+02
 0.18779168625E+02 0.19293256737E+02 0.17031837555E+02 0.15600770183E+02 0.13739151988E+02
 0.11701748092E+02 0.97348961846E+01 0.79820622413E+01 0.64970377533E+01 0.53048327690E+01
 0.44155603488E+01 0.38287877716E+01 0.35382028446E+01 0.35381942373E+01 0.38287525417E+01
 0.44154877445E+01 0.53047465709E+01 0.64970033836E+01 0.79821280662E+01 0.97350150368E+01
 0.11701781208E+02 0.13738983088E+02 0.15600427978E+02 0.17031496124E+02 0.17812787235E+02
 0.17812929603E+02 0.14789387341E+02 0.13765854512E+02 0.12405138597E+02 0.10827863818E+02
 0.92284493813E+01 0.77637175758E+01 0.64972504985E+01 0.54760147090E+01 0.47322137602E+01
 0.42824230250E+01 0.41322045987E+01 0.42824931627E+01 0.47323569750E+01 0.54760658307E+01
 0.64970033836E+01 0.77633067033E+01 0.92283377574E+01 0.10828283419E+02 0.12405717060E+02
 0.13765999223E+02 0.14788973534E+02 0.15417986059E+02 0.15630030446E+02 0.15418468135E+02
 0.12639044737E+02 0.12342403684E+02 0.11622154014E+02 0.10512277826E+02 0.92283772887E+01
 0.79820640974E+01 0.68735638178E+01 0.59812812626E+01 0.53604568180E+01 0.50430809271E+01
 0.50429779191E+01 0.53603037388E+01 0.59813050790E+01 0.68737188007E+01 0.79821280662E+01
 0.92283377574E+01 0.10512385399E+02 0.11622522063E+02 0.12342752599E+02 0.12639021732E+02
 0.12650558523E+02 0.12584074726E+02 0.12584271444E+02 0.12650889089E+02 0.11308612965E+02
 0.11802867514E+02 0.11622515944E+02 0.10828171263E+02 0.97347067420E+01 0.86102630644E+01
 0.75931456451E+01 0.67911180001E+01 0.62801596030E+01 0.61048635418E+01 0.62799609041E+01
 0.67909535431E+01 0.75932403583E+01 0.86105894593E+01 0.97350150368E+01 0.10828283419E+02
 0.11622522063E+02 0.11802973009E+02 0.11308865886E+02 0.10404230862E+02 0.95613827449E+01
 0.92209753251E+01 0.95612320650E+01 0.10403964569E+02 0.11308639190E+02 0.12342825798E+02
 0.12405699395E+02 0.11701673907E+02 0.10662677577E+02 0.95676018099E+01 0.85828402393E+01
 0.78430266704E+01 0.74465808494E+01 0.74466642427E+01 0.78431739018E+01 0.85828899252E+01
 0.95675660654E+01 0.10662705470E+02 0.11701781208E+02 0.12405717060E+02 0.12342752599E+02
 0.11308865886E+02 0.95369206614E+01 0.76657359114E+01 0.64679483329E+01 0.64673969557E+01
 0.76645747573E+01 0.95360511417E+01 0.12639115237E+02 0.13766322227E+02 0.13739056588E+02
 0.12948157856E+02 0.11858857008E+02 0.10717954762E+02 0.97196661179E+01 0.90356044671E+01
 0.87918913886E+01 0.90357466155E+01 0.97197643894E+01 0.10717930755E+02 0.11858845655E+02
 0.12948220590E+02 0.13738983088E+02 0.13765999223E+02 0.12639021732E+02 0.10404230862E+02
 0.76657359114E+01 0.54027902602E+01 0.45245047165E+01 0.54012104170E+01 0.76638963759E+01
 0.10403343962E+02 0.14789382852E+02 0.15600707629E+02 0.15281982389E+02 0.14331975118E+02
 0.13115505613E+02 0.11864535461E+02 0.10814209162E+02 0.10206718277E+02 0.10206648047E+02
 0.10814035488E+02 0.11864423582E+02 0.13115683649E+02 0.14332399266E+02 0.15282216226E+02
 0.15600427978E+02 0.14788973534E+02 0.12650558523E+02 0.95613827449E+01 0.64679483329E+01
 0.45245047165E+01 0.45236945657E+01 0.64661674540E+01 0.95599501026E+01 0.12650230114E+02
 0.17031458561E+02 0.17346169581E+02 0.16725390783E+02 0.15580368397E+02 0.14113298256E+02
 0.12595575007E+02 0.11426907592E+02 0.10985195274E+02 0.11426889986E+02 0.12595431920E+02
 0.14113141938E+02 0.15580543446E+02 0.16725978463E+02 0.17346709289E+02 0.17031496124E+02
 0.15417986059E+02 0.12584074726E+02 0.92209753251E+01 0.64673969557E+01 0.54012104170E+01
 0.64661674540E+01 0.92196610931E+01 0.12583611802E+02 0.15418150649E+02 0.18778290189E+02
 0.18663853341E+02 0.17769521304E+02 0.16194331800E+02 0.14178310019E+02 0.12246816485E+02
 0.11052460173E+02 0.11052693228E+02 0.12247101464E+02 0.14178075147E+02 0.16193839069E+02
 0.17769616769E+02 0.18664745661E+02 0.18779168625E+02 0.17812787235E+02 0.15630030446E+02
 0.12584271444E+02 0.95612320650E+01 0.76645747573E+01 0.76638963759E+01 0.95599501026E+01
 0.12583611802E+02 0.15630088404E+02 0.17812613735E+02 0.19758077063E+02 0.19292988164E+02
 0.17813386315E+02 0.15418774239E+02 0.12650640604E+02 0.10403808685E+02 0.95366793063E+01
 0.10404410776E+02 0.12650819072E+02 0.15418103190E+02 0.17812744144E+02 0.19293305833E+02
 0.19759099558E+02 0.19293256737E+02 0.17812929603E+02 0.15418468135E+02 0.12650889089E+02
 0.10403964569E+02 0.95360511417E+01 0.10403343962E+02 0.12650230114E+02 0.15418150649E+02
 0.17812613735E+02 0.19292443020E+02 0.18264798225E+02 0.16211382890E+02 0.12736718250E+02
 0.86721283873E+01 0.53663759510E+01 0.40904720848E+01 0.53663072046E+01 0.86720560149E+01
 0.12736945920E+02 0.16212189657E+02 0.18265922829E+02 0.18779069341E+02 0.18150199011E+02
 0.16880123691E+02 0.15210088698E+02 0.13461551595E+02 0.12107538532E+02 0.11594459655E+02
 0.12107198360E+02 0.13461171886E+02 0.15210003594E+02 0.16880277033E+02 0.18150077583E+02
 0.18778293403E+02 0.16211382890E+02 0.12773733863E+02 0.80883988197E+01 0.35125459549E+01
 0.67050928320E+00 0.67056208241E+00 0.35126895065E+01 0.80886398647E+01 0.12774133502E+02
 0.16211950106E+02 0.17812539992E+02 0.17769392251E+02 0.16725965395E+02 0.15282606143E+02
 0.13739243517E+02 0.12405591214E+02 0.11622584167E+02 0.11622557399E+02 0.12405531076E+02
 0.13739181879E+02 0.15282520102E+02 0.16725749492E+02 0.17768956486E+02 0.17811944488E+02
 0.12736718250E+02 0.80883988197E+01 0.28035180831E+01 -.14194018109E+01 -.30348051837E+01
 -.14186425367E+01 0.28042199662E+01 0.80884727539E+01 0.12736501318E+02 0.15629668568E+02
 0.16539873848E+02 0.15964337366E+02 0.14694761686E+02 0.13274561950E+02 0.11989718886E+02
 0.11085696775E+02 0.10758180784E+02 0.11085376939E+02 0.11989529516E+02 0.13274687322E+02
 0.14694810811E+02 0.15963952058E+02 0.16539334193E+02 0.15629523587E+02 0.86721283873E+01
 0.35125459549E+01 -.14194018109E+01 -.44428534114E+01 -.44421707217E+01 -.14182170050E+01
 0.35128729707E+01 0.86715705866E+01 0.12583514422E+02 0.14535365028E+02 0.14674672568E+02
 0.13711064767E+02 0.12415039576E+02 0.11166207353E+02 0.10190731923E+02 0.96561792680E+01
 0.96558342434E+01 0.10190128316E+02 0.11166060211E+02 0.12415371819E+02 0.13711189520E+02
 0.14674251746E+02 0.14535012065E+02 0.12583868932E+02 0.53663759510E+01 0.67050928320E+00
 -.30348051837E+01 -.44421707217E+01 -.30337534403E+01 0.67150892314E+00 0.53664500177E+01
 0.95601712633E+01 0.12207291446E+02 0.13043284128E+02 0.12507852302E+02 0.11372084513E+02
 0.10183081329E+02 0.91769290148E+01 0.85105058968E+01 0.82777784529E+01 0.85103915172E+01
 0.91768397320E+01 0.10183052516E+02 0.11371971181E+02 0.12507624830E+02 0.13043256071E+02
 0.12207750083E+02 0.95607709618E+01 0.40904720848E+01 0.67056208241E+00 -.14186425367E+01
 -.14182170050E+01 0.67150892314E+00 0.40911844954E+01 0.76643307635E+01 0.10312732621E+02
 0.11485960447E+02 0.11296541190E+02 0.10329152281E+02 0.91999869592E+01 0.81817878964E+01
 0.74275561331E+01 0.70295203886E+01 0.70296596105E+01 0.74278361917E+01 0.81818756799E+01
 0.91996606473E+01 0.10328661580E+02 0.11296469278E+02 0.11486536897E+02 0.10313441431E+02
 0.76644175527E+01 0.53663072046E+01 0.35126895065E+01 0.28042199662E+01 0.35128729707E+01
 0.53664500177E+01 0.76643307635E+01 0.95806909036E+01 0.10524500978E+02 0.10376444597E+02
 0.94774714136E+01 0.83617265704E+01 0.73207470071E+01 0.64943418554E+01 0.59701402266E+01
 0.57913036872E+01 0.59701028344E+01 0.64942954165E+01 0.73206871669E+01 0.83616207877E+01
 0.94773507472E+01 0.10376428630E+02 0.10524661914E+02 0.95809164791E+01 0.76644064384E+01
 0.86720560149E+01 0.80886398647E+01 0.80884727539E+01 0.86715705866E+01 0.95601712633E+01
 0.10312732621E+02 0.10524500978E+02 0.10030928929E+02 0.89945683799E+01 0.77964270272E+01
 0.66878674895E+01 0.57789700767E+01 0.51437145571E+01 0.48195728494E+01 0.48194508747E+01
 0.51434753531E+01 0.57788697091E+01 0.66879984996E+01 0.77965563031E+01 0.89944051716E+01
 0.10030562722E+02 0.10524370571E+02 0.10313092131E+02 0.95607916270E+01 0.12736945920E+02
 0.12774133502E+02 0.12736501318E+02 0.12583514422E+02 0.12207291446E+02 0.11485960447E+02
 0.10376444597E+02 0.89945683799E+01 0.75968182928E+01 0.63530783394E+01 0.53304937222E+01
 0.45791683584E+01 0.41245621687E+01 0.39730428329E+01 0.41246030341E+01 0.45792168709E+01
 0.53305175875E+01 0.63530681185E+01 0.75967733641E+01 0.89944910419E+01 0.10376388752E+02
 0.11486064006E+02 0.12207675212E+02 0.12584091405E+02 0.16212189657E+02 0.16211950106E+02
 0.15629668568E+02 0.14535365028E+02 0.13043284128E+02 0.11296541190E+02 0.94774714136E+01
 0.77964270272E+01 0.63530783394E+01 0.51780289997E+01 0.42935953526E+01 0.37086701834E+01
 0.34195658806E+01 0.34196689910E+01 0.37088556637E+01 0.42936506332E+01 0.51779347684E+01
 0.63530415410E+01 0.77965879554E+01 0.94776921148E+01 0.11296629271E+02 0.13043335020E+02
 0.14535641662E+02 0.15630131825E+02 0.18265922829E+02 0.17812539992E+02 0.16539873848E+02
 0.14674672568E+02 0.12507852302E+02 0.10329152281E+02 0.83617265704E+01 0.66878674895E+01
 0.53304937222E+01 0.42935953526E+01 0.35705403395E+01 0.31469805945E+01 0.30079530173E+01
 0.31470447235E+01 0.35706189294E+01 0.42936422409E+01 0.53305021875E+01 0.66878543568E+01
 0.83617170926E+01 0.10329198953E+02 0.12508042654E+02 0.14675054099E+02 0.16540349593E+02
 0.17812878764E+02 0.18779069341E+02 0.17769392251E+02 0.15964337366E+02 0.13711064767E+02
 0.11372084513E+02 0.91999869592E+01 0.73207470071E+01 0.57789700767E+01 0.45791683584E+01
 0.37086701834E+01 0.31469805945E+01 0.28729099694E+01 0.28729109663E+01 0.31470360879E+01
 0.37088181341E+01 0.45792771864E+01 0.57788486278E+01 0.73204237572E+01 0.91997648558E+01
 0.11372238101E+02 0.13711540782E+02 0.15964835162E+02 0.17769688179E+02 0.18779154223E+02
 0.18150199011E+02 0.16725965395E+02 0.14694761686E+02 0.12415039576E+02 0.10183081329E+02
 0.81817878964E+01 0.64943418554E+01 0.51437145571E+01 0.41245621687E+01 0.34195658806E+01
 0.30079530173E+01 0.28729109663E+01 0.30079670289E+01 0.34195747475E+01 0.41245451363E+01
 0.51436706985E+01 0.64942904324E+01 0.81817435397E+01 0.10183044963E+02 0.12415021119E+02
 0.14694787649E+02 0.16726038813E+02 0.18150267591E+02 0.18664748919E+02 0.16880123691E+02
 0.15282606143E+02 0.13274561950E+02 0.11166207353E+02 0.91769290148E+01 0.74275561331E+01
 0.59701402266E+01 0.48195728494E+01 0.39730428329E+01 0.34196689910E+01 0.31470447235E+01
 0.31470360879E+01 0.34195747475E+01 0.39728235290E+01 0.48194121310E+01 0.59702649027E+01
 0.74278849391E+01 0.91770892864E+01 0.11165964672E+02 0.13274103359E+02 0.15282296684E+02
 0.16880076952E+02 0.17769673906E+02 0.17769643932E+02 0.15210088698E+02 0.13739243517E+02
 0.11989718886E+02 0.10190731923E+02 0.85105058968E+01 0.70295203886E+01 0.57913036872E+01
 0.48194508747E+01 0.41246030341E+01 0.37088556637E+01 0.35706189294E+01 0.37088181341E+01
 0.41245451363E+01 0.48194121310E+01 0.57913208221E+01 0.70295773550E+01 0.85105265442E+01
 0.10190648707E+02 0.11989548845E+02 0.13739075561E+02 0.15209994350E+02 0.16193718530E+02
 0.16540122921E+02 0.16193745139E+02 0.13461551595E+02 0.12405591214E+02 0.11085696775E+02
 0.96561792680E+01 0.82777784529E+01 0.70296596105E+01 0.59701028344E+01 0.51434753531E+01
 0.45792168709E+01 0.42936506332E+01 0.42936422409E+01 0.45792771864E+01 0.51436706985E+01
 0.59702649027E+01 0.70295773550E+01 0.82775211163E+01 0.96560265980E+01 0.11085772613E+02
 0.12405736660E+02 0.13461572293E+02 0.14177805243E+02 0.14535229440E+02 0.14535291075E+02
 0.14177902768E+02 0.12107538532E+02 0.11622584167E+02 0.10758180784E+02 0.96558342434E+01
 0.85103915172E+01 0.74278361917E+01 0.64942954165E+01 0.57788697091E+01 0.53305175875E+01
 0.51779347684E+01 0.53305021875E+01 0.57788486278E+01 0.64942904324E+01 0.74278849391E+01
 0.85105265442E+01 0.96560265980E+01 0.10758313560E+02 0.11622526427E+02 0.12107268268E+02
 0.12246814728E+02 0.12207429847E+02 0.12169055571E+02 0.12207675212E+02 0.12247169737E+02
 0.11594459655E+02 0.11622557399E+02 0.11085376939E+02 0.10190128316E+02 0.91768397320E+01
 0.81818756799E+01 0.73206871669E+01 0.66879984996E+01 0.63530681185E+01 0.63530415410E+01
 0.66878543568E+01 0.73204237572E+01 0.81817435397E+01 0.91770892864E+01 0.10190648707E+02
 0.11085772613E+02 0.11622526427E+02 0.11593979406E+02 0.11052413077E+02 0.10313021081E+02
 0.97964249100E+01 0.97967042964E+01 0.10313701863E+02 0.11053152617E+02 0.12107198360E+02
 0.12405531076E+02 0.11989529516E+02 0.11166060211E+02 0.10183052516E+02 0.91996606473E+01
 0.83616207877E+01 0.77965563031E+01 0.75967733641E+01 0.77965879554E+01 0.83617170926E+01
 0.91997648558E+01 0.10183044963E+02 0.11165964672E+02 0.11989548845E+02 0.12405736660E+02
 0.12107268268E+02 0.11052413077E+02 0.95806864956E+01 0.83010865442E+01 0.77953247092E+01
 0.83019673356E+01 0.95817263284E+01 0.11052920018E+02 0.13461171886E+02 0.13739181879E+02
 0.13274687322E+02 0.12415371819E+02 0.11371971181E+02 0.10328661580E+02 0.94773507472E+01
 0.89944051716E+01 0.89944910419E+01 0.94776921148E+01 0.10329198953E+02 0.11372238101E+02
 0.12415021119E+02 0.13274103359E+02 0.13739075561E+02 0.13461572293E+02 0.12246814728E+02
 0.10313021081E+02 0.83010865442E+01 0.70163980667E+01 0.70170264700E+01 0.83023771279E+01