       N       E                     dE             d eps       ncg     rms          rms(c)
DAV:   1     0.212080944175E+01    0.21208E+01   -0.22376E+03   960   0.437E+02
DAV:   2    -0.619362705417E+01   -0.83144E+01   -0.76471E+01  1416   0.586E+01
DAV:   3    -0.624466136125E+01   -0.51034E-01   -0.51024E-01  1032   0.556E+00
DAV:   4    -0.624474533000E+01   -0.83969E-04   -0.83969E-04  1480   0.222E-01
DAV:   5    -0.624474534878E+01   -0.18777E-07   -0.18252E-07  1112   0.234E-03    0.483E+00
DAV:   6    -0.557403375274E+01    0.67071E+00   -0.55763E-01   936   0.422E+00    0.247E+00
DAV:   7    -0.536045509770E+01    0.21358E+00   -0.51159E-01  1104   0.408E+00    0.308E-01
DAV:   8    -0.535899023038E+01    0.14649E-02   -0.84332E-03  1032   0.794E-01    0.392E-02
DAV:   9    -0.535893179379E+01    0.58437E-04   -0.21618E-04   968   0.969E-02
   1 F= -.53589318E+01 E0= -.53579273E+01  d E =-.200904E-02
