LAMMPS (17 Nov 2016)
# Affiliation: Dept. Materials Science and Engineering
# University of Arizona
# Abduljabar Alsayoud


# Units energy:eV time:ps distance:angstrom flux:energy*velocity
#---------Sim variables---------------
variable fileprefix string  nvt300
variable temp_s equal '300.0'

#-----------Setup----------------------
units metal            #Energy = eV , Distance= Angstroms
dimension 3
boundary p p p         #Periodic boundary conditions
atom_style atomic

# Read config files

read_data AlNPTfinal.data
  orthogonal box = (-16.4064 -16.4064 -16.4064) to (24.4562 24.4562 24.4562)
  2 by 2 by 7 MPI processor grid
  reading atoms ...
  4000 atoms

pair_style eam/alloy
pair_coeff * *  AlCu.eam.alloy Al
Reading potential file AlCu.eam.alloy with DATE: 2008-10-01
neighbor 2.0 bin
neigh_modify delay 10 check yes


#--------- NPT-------
reset_timestep 0
timestep 0.001

thermo 1000
thermo_style custom step pe ke etotal enthalpy temp vol press
velocity all create ${temp_s} 1518772
velocity all create 300 1518772
fix 1 all nvt temp ${temp_s} ${temp_s} 0.5
fix 1 all nvt temp 300 ${temp_s} 0.5
fix 1 all nvt temp 300 300 0.5
dump 2 all atom 2000 dump.nvt${fileprefix}
dump 2 all atom 2000 dump.nvtnvt300
run 60000
Neighbor list info ...
  1 neighbor list requests
  update every 1 steps, delay 10 steps, check yes
  max neighbors/atom: 2000, page size: 100000
  master list distance cutoff = 8.6825
  ghost atom cutoff = 8.6825
  binsize = 4.34125 -> bins = 10 10 10
Memory usage per processor = 3.68056 Mbytes
Step PotEng KinEng TotEng Enthalpy Temp Volume Press 
       0    -13108.43     155.0734   -12953.356   -12964.228          300    68230.709    -255.2959 
    1000   -13108.366    153.96904   -12954.397   -12967.062    297.86354    68230.709   -297.40343 
    2000    -13112.04    156.10635   -12955.933   -12985.837    301.99832    68230.709   -702.19068 
    3000   -13107.629    157.64908    -12949.98   -12956.893    304.98284    68230.709   -162.32711 
    4000   -13111.409    154.91743   -12956.491   -12984.372    299.69828    68230.709   -654.69862 
    5000   -13108.275    153.56256   -12954.713    -12967.19    297.07719    68230.709   -292.98265 
    6000   -13105.361    154.16257   -12951.199   -12951.303    298.23794    68230.709   -2.4614136 
    7000    -13112.02    152.78356   -12959.236   -12987.827    295.57015    68230.709    -671.3789 
    8000   -13107.364    153.46496   -12953.899   -12962.178    296.88838    68230.709   -194.39928 
    9000   -13108.259    156.06135   -12952.197   -12964.381    301.91126    68230.709   -286.09399 
   10000   -13109.469     149.7671   -12959.702   -12981.247    289.73461    68230.709   -505.90457 
   11000   -13110.559    155.89441   -12954.665   -12973.686    301.58831    68230.709   -446.65565 
   12000    -13109.32    156.64631   -12952.674   -12966.746    303.04291    68230.709   -330.43407 
   13000    -13113.94    157.96589   -12955.974   -12988.975    305.59573    68230.709   -774.91444 
   14000   -13109.398       153.71   -12955.688    -12973.18    297.36241    68230.709   -410.74274 
   15000    -13106.39    154.85063    -12951.54   -12953.973    299.56904    68230.709   -57.125407 
   16000   -13110.494    154.63768   -12955.856   -12977.377    299.15707    68230.709   -505.34506 
   17000   -13113.251    150.88359   -12962.367   -12999.528    291.89453    68230.709   -872.59538 
   18000   -13103.181    148.81768   -12954.363   -12946.323    287.89789    68230.709    188.80164 
   19000   -13108.664    157.37007   -12951.294   -12962.231    304.44307    68230.709   -256.81895 
   20000   -13109.834    153.47959   -12956.354   -12978.056    296.91668    68230.709   -509.58789 
   21000   -13107.786     152.9013   -12954.885   -12965.638    295.79793    68230.709   -252.50487 
   22000   -13108.705    156.98323   -12951.722   -12961.606    303.69471    68230.709    -232.1008 
   23000   -13108.108    152.11366   -12955.994   -12969.296    294.27418    68230.709   -312.34956 
   24000   -13108.575    154.15121   -12954.424   -12966.671    298.21597    68230.709   -287.56641 
   25000   -13107.086    156.70563    -12950.38   -12953.807    303.15766    68230.709   -80.452977 
   26000   -13109.111    152.38493   -12956.726   -12972.206    294.79899    68230.709   -363.49567 
   27000   -13109.146    154.74152   -12954.405   -12967.694    299.35796    68230.709   -312.06631 
   28000   -13109.588    157.32632   -12952.262   -12968.696    304.35844    68230.709   -385.90414 
   29000   -13105.904    150.37994   -12955.524   -12958.585    290.92019    68230.709   -71.880986 
   30000   -13109.365    154.01856   -12955.347   -12970.279    297.95935    68230.709   -350.62309 
   31000   -13108.554    158.15758   -12950.397   -12960.476    305.96656    68230.709   -236.69428 
   32000   -13107.724    153.60178   -12954.122   -12962.373    297.15306    68230.709    -193.7583 
   33000   -13107.922    154.09088   -12953.831   -12964.042    298.09926    68230.709   -239.77904 
   34000   -13105.028    153.95769    -12951.07   -12949.067    297.84159    68230.709    47.034711 
   35000   -13109.787    158.53488   -12951.253   -12967.171    306.69648    68230.709   -373.78446 
   36000    -13110.55    154.13361   -12956.416   -12976.392    298.18192    68230.709   -469.06255 
   37000   -13107.196    156.59778   -12950.599   -12957.664    302.94902    68230.709   -165.91506 
   38000   -13106.298    158.77686   -12947.521   -12945.924    307.16461    68230.709    37.513941 
   39000   -13109.063    153.22354    -12955.84   -12970.985    296.42133    68230.709   -355.64772 
   40000    -13108.28    154.16993    -12954.11    -12964.91    298.25218    68230.709   -253.60067 
   41000   -13106.533    156.14349   -12950.389   -12953.661    302.07017    68230.709   -76.827963 
   42000   -13110.146    154.19787   -12955.949   -12975.983    298.30623    68230.709   -470.43551 
   43000   -13107.174    153.86503   -12953.309   -12959.537    297.66234    68230.709   -146.24757 
   44000   -13109.356    158.49541    -12950.86   -12963.388    306.62012    68230.709     -294.172 
   45000   -13109.044    151.29103   -12957.753   -12973.332    292.68276    68230.709    -365.8237 
   46000   -13105.839    152.77904    -12953.06   -12953.554    295.56142    68230.709   -11.594145 
   47000   -13107.874    154.93623   -12952.938    -12962.62    299.73464    68230.709   -227.35077 
   48000   -13111.135    154.79943   -12956.335   -12978.269    299.46999    68230.709   -515.05351 
   49000   -13112.779    154.84341   -12957.936   -12991.914    299.55507    68230.709   -797.85967 
   50000   -13108.005    155.71868   -12952.286    -12959.65    301.24834    68230.709   -172.91022 
   51000   -13111.928     156.3312   -12955.596   -12978.881     302.4333    68230.709   -546.76756 
   52000   -13111.664    153.97539   -12957.689   -12984.819    297.87584    68230.709   -637.06409 
   53000   -13106.236    154.86186   -12951.374   -12952.535    299.59078    68230.709   -27.271205 
   54000   -13111.394    155.12719   -12956.267   -12981.556    300.10406    68230.709   -593.83522 
   55000   -13107.465    153.72112   -12953.744   -12962.346    297.38394    68230.709   -201.98818 
   56000   -13108.908    157.82703   -12951.081    -12963.93    305.32709    68230.709   -301.72685 
   57000   -13109.337     152.8484   -12956.488   -12972.909     295.6956    68230.709   -385.58822 
   58000   -13107.678    153.53782    -12954.14   -12965.289    297.02933    68230.709   -261.79628 
   59000   -13108.827    155.73574   -12953.091   -12964.382    301.28135    68230.709   -265.12179 
   60000   -13110.133    155.84254    -12954.29   -12974.327    301.48796    68230.709   -470.49491 
Loop time of 4601.47 on 28 procs for 60000 steps with 4000 atoms

Performance: 1.127 ns/day, 21.303 hours/ns, 13.039 timesteps/s
96.3% CPU use with 28 MPI tasks x no OpenMP threads

MPI task timing breakdown:
Section |  min time  |  avg time  |  max time  |%varavg| %total
---------------------------------------------------------------
Pair    | 1257.3     | 1457.7     | 1559.4     | 222.0 | 31.68
Neigh   | 0.004575   | 0.0051981  | 0.0057364  |   0.5 |  0.00
Comm    | 1622.4     | 1734.9     | 1935.3     | 203.0 | 37.70
Output  | 4.3594     | 4.4385     | 4.5989     |   1.7 |  0.10
Modify  | 493.92     | 699.78     | 877.95     | 245.6 | 15.21
Other   |            | 704.7      |            |       | 15.31

Nlocal:    142.857 ave 157 max 112 min
Histogram: 1 0 3 2 1 1 1 5 8 6
Nghost:    1906.79 ave 2044 max 1831 min
Histogram: 12 0 5 3 0 0 0 0 0 8
Neighs:    11359.4 ave 12826 max 9151 min
Histogram: 1 2 3 0 4 5 0 5 4 4

Total # of neighbors = 318062
Ave neighs/atom = 79.5155
Neighbor list builds = 12
Dangerous builds = 0
unfix 1
undump 2

######################################
# SIMULATION DONE
print "All done"
All done
Total wall time: 1:16:42
