diamond Si                              
   5.10000000000000     
     0.000000    0.490819    0.490819
     0.490819    0.000000    0.490819
     0.490819    0.490819    0.000000
   Si
     2
Direct
  0.875000  0.875000  0.875000
  0.125000  0.125000  0.125000
 
   28   28   28
 0.22105057807E+02 0.21923846713E+02 0.21284009144E+02 0.19936454373E+02 0.17863360019E+02
 0.15483253707E+02 0.13552761919E+02 0.12807493216E+02 0.13552605228E+02 0.15483032141E+02
 0.17863167113E+02 0.19936336739E+02 0.21283989961E+02 0.21923926813E+02 0.22105182829E+02
 0.21923926813E+02 0.21283989961E+02 0.19936336739E+02 0.17863167113E+02 0.15483032141E+02
 0.13552605228E+02 0.12807493216E+02 0.13552761919E+02 0.15483253707E+02 0.17863360019E+02
 0.19936454373E+02 0.21284009144E+02 0.21923846713E+02 0.21923846713E+02 0.21823255395E+02
 0.20827609262E+02 0.18718742781E+02 0.15795131701E+02 0.12898194613E+02 0.11083292517E+02
 0.11083102704E+02 0.12897893429E+02 0.15795093217E+02 0.18718843755E+02 0.20827435158E+02
 0.21822821712E+02 0.21923686063E+02 0.21536780422E+02 0.20822441138E+02 0.19769668466E+02
 0.18291890542E+02 0.16499678428E+02 0.14804638084E+02 0.13759686950E+02 0.13759643400E+02
 0.14804722395E+02 0.16500117441E+02 0.18292373800E+02 0.19769646821E+02 0.20821914610E+02
 0.21536376802E+02 0.21284009144E+02 0.20827609262E+02 0.19010429857E+02 0.15896257391E+02
 0.12233555158E+02 0.92505015647E+01 0.80989309012E+01 0.92500671675E+01 0.12233048520E+02
 0.15896017556E+02 0.19010475127E+02 0.20827739443E+02 0.21284085860E+02 0.20821940819E+02
 0.19947138951E+02 0.18838441290E+02 0.17550910246E+02 0.16128845236E+02 0.14728840934E+02
 0.13667071213E+02 0.13267404266E+02 0.13667026657E+02 0.14728861611E+02 0.16128982587E+02
 0.17551077431E+02 0.18838532641E+02 0.19947150621E+02 0.20821914610E+02 0.19936454373E+02
 0.18718742781E+02 0.15896257391E+02 0.11958815082E+02 0.80789429550E+01 0.56610359541E+01
 0.56607702196E+01 0.80782993043E+01 0.11958188744E+02 0.15896066108E+02 0.18719098878E+02
 0.19936992033E+02 0.19769801906E+02 0.18838122437E+02 0.17634795750E+02 0.16321310542E+02
 0.14984507295E+02 0.13729602898E+02 0.12714729598E+02 0.12135120141E+02 0.12135182192E+02
 0.12714735222E+02 0.13729357235E+02 0.14984249917E+02 0.16321468038E+02 0.17635347977E+02
 0.18838532641E+02 0.19769646821E+02 0.17863360019E+02 0.15795131701E+02 0.12233555158E+02
 0.80789429550E+01 0.47213281969E+01 0.34307115612E+01 0.47209305231E+01 0.80784977322E+01
 0.12233382325E+02 0.15795224686E+02 0.17863489667E+02 0.18292388532E+02 0.17551013064E+02
 0.16321411622E+02 0.14968675168E+02 0.13629569540E+02 0.12398636868E+02 0.11378369040E+02
 0.10691547714E+02 0.10447684115E+02 0.10691498266E+02 0.11378331597E+02 0.12398646138E+02
 0.13629600676E+02 0.14968709152E+02 0.16321468038E+02 0.17551077431E+02 0.18292373800E+02
 0.15483253707E+02 0.12898194613E+02 0.92505015647E+01 0.56610359541E+01 0.34307115612E+01
 0.34305692012E+01 0.56608011183E+01 0.92504595410E+01 0.12898291984E+02 0.15483196589E+02
 0.16499874951E+02 0.16128904433E+02 0.14984545832E+02 0.13629952177E+02 0.12278563830E+02
 0.11043984288E+02 0.10009016683E+02 0.92524979887E+01 0.88496181674E+01 0.88494706702E+01
 0.92523282129E+01 0.10009189497E+02 0.11044331362E+02 0.12278599929E+02 0.13629600676E+02
 0.14984249917E+02 0.16128982587E+02 0.16500117441E+02 0.13552761919E+02 0.11083292517E+02
 0.80989309012E+01 0.56607702196E+01 0.47209305231E+01 0.56608011183E+01 0.80989840622E+01
 0.11083356601E+02 0.13552824175E+02 0.14804765333E+02 0.14728869774E+02 0.13729333931E+02
 0.12398618567E+02 0.11044328338E+02 0.97970856134E+01 0.87403436221E+01 0.79332496570E+01
 0.74243605942E+01 0.72500633164E+01 0.74243653309E+01 0.79332423210E+01 0.87403183386E+01
 0.97970622621E+01 0.11044331362E+02 0.12398646138E+02 0.13729357235E+02 0.14728861611E+02
 0.14804722395E+02 0.12807493216E+02 0.11083102704E+02 0.92500671675E+01 0.80782993043E+01
 0.80784977322E+01 0.92504595410E+01 0.11083356601E+02 0.12807562648E+02 0.13759717280E+02
 0.13667137052E+02 0.12714679630E+02 0.11378049691E+02 0.10008971988E+02 0.87404439914E+01
 0.76553365406E+01 0.68040524903E+01 0.62183881167E+01 0.59197747671E+01 0.59199205594E+01
 0.62185885495E+01 0.68039592413E+01 0.76550258056E+01 0.87403183386E+01 0.10009189497E+02
 0.11378331597E+02 0.12714735222E+02 0.13667026657E+02 0.13759643400E+02 0.13552605228E+02
 0.12897893429E+02 0.12233048520E+02 0.11958188744E+02 0.12233382325E+02 0.12898291984E+02
 0.13552824175E+02 0.13759717280E+02 0.13267380747E+02 0.12135184411E+02 0.10691506211E+02
 0.92523125013E+01 0.79332129777E+01 0.68039309844E+01 0.59052450055E+01 0.52565815066E+01
 0.48655974496E+01 0.47350397118E+01 0.48656310448E+01 0.52566245387E+01 0.59052785276E+01
 0.68039592413E+01 0.79332423210E+01 0.92523282129E+01 0.10691498266E+02 0.12135182192E+02
 0.13267404266E+02 0.13759686950E+02 0.15483032141E+02 0.15795093217E+02 0.15896017556E+02
 0.15896066108E+02 0.15795224686E+02 0.15483196589E+02 0.14804765333E+02 0.13667137052E+02
 0.12135184411E+02 0.10447809212E+02 0.88495995316E+01 0.74243497756E+01 0.62183825676E+01
 0.52563916720E+01 0.45446160030E+01 0.40778526287E+01 0.38473849555E+01 0.38473032194E+01
 0.40777349145E+01 0.45446703796E+01 0.52566245387E+01 0.62185885495E+01 0.74243653309E+01
 0.88494706702E+01 0.10447684115E+02 0.12135120141E+02 0.13667071213E+02 0.14804638084E+02
 0.17863167113E+02 0.18718843755E+02 0.19010475127E+02 0.18719098878E+02 0.17863489667E+02
 0.16499874951E+02 0.14728869774E+02 0.12714679630E+02 0.10691506211E+02 0.88495995316E+01
 0.72500467285E+01 0.59199034599E+01 0.48656242802E+01 0.40777343190E+01 0.35373773513E+01
 0.32238016973E+01 0.31212362985E+01 0.32238125197E+01 0.35373846137E+01 0.40777349145E+01
 0.48656310448E+01 0.59199205594E+01 0.72500633164E+01 0.88496181674E+01 0.10691547714E+02
 0.12714729598E+02 0.14728840934E+02 0.16499678428E+02 0.19936336739E+02 0.20827435158E+02
 0.20827739443E+02 0.19936992033E+02 0.18292388532E+02 0.16128904433E+02 0.13729333931E+02
 0.11378049691E+02 0.92523125013E+01 0.74243497756E+01 0.59199034599E+01 0.47352249212E+01
 0.38474284529E+01 0.32238045532E+01 0.28308544068E+01 0.26418053649E+01 0.26418592889E+01
 0.28309485120E+01 0.32238125197E+01 0.38473032194E+01 0.47350397118E+01 0.59197747671E+01
 0.74243605942E+01 0.92524979887E+01 0.11378369040E+02 0.13729602898E+02 0.16128845236E+02
 0.18291890542E+02 0.21283989961E+02 0.21822821712E+02 0.21284085860E+02 0.19769801906E+02
 0.17551013064E+02 0.14984545832E+02 0.12398618567E+02 0.10008971988E+02 0.79332129777E+01
 0.62183825676E+01 0.48656242802E+01 0.38474284529E+01 0.31212798128E+01 0.26418935932E+01
 0.23709918354E+01 0.22835625622E+01 0.23709724071E+01 0.26418592889E+01 0.31212362985E+01
 0.38473849555E+01 0.48655974496E+01 0.62183881167E+01 0.79332496570E+01 0.10009016683E+02
 0.12398636868E+02 0.14984507295E+02 0.17550910246E+02 0.19769668466E+02 0.21923926813E+02
 0.21923686063E+02 0.20821940819E+02 0.18838122437E+02 0.16321411622E+02 0.13629952177E+02
 0.11044328338E+02 0.87404439914E+01 0.68039309844E+01 0.52563916720E+01 0.40777343190E+01
 0.32238045532E+01 0.26418935932E+01 0.22836605880E+01 0.21136972522E+01 0.21136560265E+01
 0.22835625622E+01 0.26418053649E+01 0.32238016973E+01 0.40778526287E+01 0.52565815066E+01
 0.68040524903E+01 0.87403436221E+01 0.11043984288E+02 0.13629569540E+02 0.16321310542E+02
 0.18838441290E+02 0.20822441138E+02 0.22105182829E+02 0.21536780422E+02 0.19947138951E+02
 0.17634795750E+02 0.14968675168E+02 0.12278563830E+02 0.97970856134E+01 0.76553365406E+01
 0.59052450055E+01 0.45446160030E+01 0.35373773513E+01 0.28308544068E+01 0.23709918354E+01
 0.21136972522E+01 0.20310777312E+01 0.21136972522E+01 0.23709918354E+01 0.28308544068E+01
 0.35373773513E+01 0.45446160030E+01 0.59052450055E+01 0.76553365406E+01 0.97970856134E+01
 0.12278563830E+02 0.14968675168E+02 0.17634795750E+02 0.19947138951E+02 0.21536780422E+02
 0.21923926813E+02 0.20822441138E+02 0.18838441290E+02 0.16321310542E+02 0.13629569540E+02
 0.11043984288E+02 0.87403436221E+01 0.68040524903E+01 0.52565815066E+01 0.40778526287E+01
 0.32238016973E+01 0.26418053649E+01 0.22835625622E+01 0.21136560265E+01 0.21136972522E+01
 0.22836605880E+01 0.26418935932E+01 0.32238045532E+01 0.40777343190E+01 0.52563916720E+01
 0.68039309844E+01 0.87404439914E+01 0.11044328338E+02 0.13629952177E+02 0.16321411622E+02
 0.18838122437E+02 0.20821940819E+02 0.21923686063E+02 0.21283989961E+02 0.19769668466E+02
 0.17550910246E+02 0.14984507295E+02 0.12398636868E+02 0.10009016683E+02 0.79332496570E+01
 0.62183881167E+01 0.48655974496E+01 0.38473849555E+01 0.31212362985E+01 0.26418592889E+01
 0.23709724071E+01 0.22835625622E+01 0.23709918354E+01 0.26418935932E+01 0.31212798128E+01
 0.38474284529E+01 0.48656242802E+01 0.62183825676E+01 0.79332129777E+01 0.10008971988E+02
 0.12398618567E+02 0.14984545832E+02 0.17551013064E+02 0.19769801906E+02 0.21284085860E+02
 0.21822821712E+02 0.19936336739E+02 0.18291890542E+02 0.16128845236E+02 0.13729602898E+02
 0.11378369040E+02 0.92524979887E+01 0.74243605942E+01 0.59197747671E+01 0.47350397118E+01
 0.38473032194E+01 0.32238125197E+01 0.28309485120E+01 0.26418592889E+01 0.26418053649E+01
 0.28308544068E+01 0.32238045532E+01 0.38474284529E+01 0.47352249212E+01 0.59199034599E+01
 0.74243497756E+01 0.92523125013E+01 0.11378049691E+02 0.13729333931E+02 0.16128904433E+02
 0.18292388532E+02 0.19936992033E+02 0.20827739443E+02 0.20827435158E+02 0.17863167113E+02
 0.16499678428E+02 0.14728840934E+02 0.12714729598E+02 0.10691547714E+02 0.88496181674E+01
 0.72500633164E+01 0.59199205594E+01 0.48656310448E+01 0.40777349145E+01 0.35373846137E+01
 0.32238125197E+01 0.31212362985E+01 0.32238016973E+01 0.35373773513E+01 0.40777343190E+01
 0.48656242802E+01 0.59199034599E+01 0.72500467285E+01 0.88495995316E+01 0.10691506211E+02
 0.12714679630E+02 0.14728869774E+02 0.16499874951E+02 0.17863489667E+02 0.18719098878E+02
 0.19010475127E+02 0.18718843755E+02 0.15483032141E+02 0.14804638084E+02 0.13667071213E+02
 0.12135120141E+02 0.10447684115E+02 0.88494706702E+01 0.74243653309E+01 0.62185885495E+01
 0.52566245387E+01 0.45446703796E+01 0.40777349145E+01 0.38473032194E+01 0.38473849555E+01
 0.40778526287E+01 0.45446160030E+01 0.52563916720E+01 0.62183825676E+01 0.74243497756E+01
 0.88495995316E+01 0.10447809212E+02 0.12135184411E+02 0.13667137052E+02 0.14804765333E+02
 0.15483196589E+02 0.15795224686E+02 0.15896066108E+02 0.15896017556E+02 0.15795093217E+02
 0.13552605228E+02 0.13759686950E+02 0.13267404266E+02 0.12135182192E+02 0.10691498266E+02
 0.92523282129E+01 0.79332423210E+01 0.68039592413E+01 0.59052785276E+01 0.52566245387E+01
 0.48656310448E+01 0.47350397118E+01 0.48655974496E+01 0.52565815066E+01 0.59052450055E+01
 0.68039309844E+01 0.79332129777E+01 0.92523125013E+01 0.10691506211E+02 0.12135184411E+02
 0.13267380747E+02 0.13759717280E+02 0.13552824175E+02 0.12898291984E+02 0.12233382325E+02
 0.11958188744E+02 0.12233048520E+02 0.12897893429E+02 0.12807493216E+02 0.13759643400E+02
 0.13667026657E+02 0.12714735222E+02 0.11378331597E+02 0.10009189497E+02 0.87403183386E+01
 0.76550258056E+01 0.68039592413E+01 0.62185885495E+01 0.59199205594E+01 0.59197747671E+01
 0.62183881167E+01 0.68040524903E+01 0.76553365406E+01 0.87404439914E+01 0.10008971988E+02
 0.11378049691E+02 0.12714679630E+02 0.13667137052E+02 0.13759717280E+02 0.12807562648E+02
 0.11083356601E+02 0.92504595410E+01 0.80784977322E+01 0.80782993043E+01 0.92500671675E+01
 0.11083102704E+02 0.13552761919E+02 0.14804722395E+02 0.14728861611E+02 0.13729357235E+02
 0.12398646138E+02 0.11044331362E+02 0.97970622621E+01 0.87403183386E+01 0.79332423210E+01
 0.74243653309E+01 0.72500633164E+01 0.74243605942E+01 0.79332496570E+01 0.87403436221E+01
 0.97970856134E+01 0.11044328338E+02 0.12398618567E+02 0.13729333931E+02 0.14728869774E+02
 0.14804765333E+02 0.13552824175E+02 0.11083356601E+02 0.80989840622E+01 0.56608011183E+01
 0.47209305231E+01 0.56607702196E+01 0.80989309012E+01 0.11083292517E+02 0.15483253707E+02
 0.16500117441E+02 0.16128982587E+02 0.14984249917E+02 0.13629600676E+02 0.12278599929E+02
 0.11044331362E+02 0.10009189497E+02 0.92523282129E+01 0.88494706702E+01 0.88496181674E+01
 0.92524979887E+01 0.10009016683E+02 0.11043984288E+02 0.12278563830E+02 0.13629952177E+02
 0.14984545832E+02 0.16128904433E+02 0.16499874951E+02 0.15483196589E+02 0.12898291984E+02
 0.92504595410E+01 0.56608011183E+01 0.34305692012E+01 0.34307115612E+01 0.56610359541E+01
 0.92505015647E+01 0.12898194613E+02 0.17863360019E+02 0.18292373800E+02 0.17551077431E+02
 0.16321468038E+02 0.14968709152E+02 0.13629600676E+02 0.12398646138E+02 0.11378331597E+02
 0.10691498266E+02 0.10447684115E+02 0.10691547714E+02 0.11378369040E+02 0.12398636868E+02
 0.13629569540E+02 0.14968675168E+02 0.16321411622E+02 0.17551013064E+02 0.18292388532E+02
 0.17863489667E+02 0.15795224686E+02 0.12233382325E+02 0.80784977322E+01 0.47209305231E+01
 0.34307115612E+01 0.47213281969E+01 0.80789429550E+01 0.12233555158E+02 0.15795131701E+02
 0.19936454373E+02 0.19769646821E+02 0.18838532641E+02 0.17635347977E+02 0.16321468038E+02
 0.14984249917E+02 0.13729357235E+02 0.12714735222E+02 0.12135182192E+02 0.12135120141E+02
 0.12714729598E+02 0.13729602898E+02 0.14984507295E+02 0.16321310542E+02 0.17634795750E+02
 0.18838122437E+02 0.19769801906E+02 0.19936992033E+02 0.18719098878E+02 0.15896066108E+02
 0.11958188744E+02 0.80782993043E+01 0.56607702196E+01 0.56610359541E+01 0.80789429550E+01
 0.11958815082E+02 0.15896257391E+02 0.18718742781E+02 0.21284009144E+02 0.20821914610E+02
 0.19947150621E+02 0.18838532641E+02 0.17551077431E+02 0.16128982587E+02 0.14728861611E+02
 0.13667026657E+02 0.13267404266E+02 0.13667071213E+02 0.14728840934E+02 0.16128845236E+02
 0.17550910246E+02 0.18838441290E+02 0.19947138951E+02 0.20821940819E+02 0.21284085860E+02
 0.20827739443E+02 0.19010475127E+02 0.15896017556E+02 0.12233048520E+02 0.92500671675E+01
 0.80989309012E+01 0.92505015647E+01 0.12233555158E+02 0.15896257391E+02 0.19010429857E+02
 0.20827609262E+02 0.21923846713E+02 0.21536376802E+02 0.20821914610E+02 0.19769646821E+02
 0.18292373800E+02 0.16500117441E+02 0.14804722395E+02 0.13759643400E+02 0.13759686950E+02
 0.14804638084E+02 0.16499678428E+02 0.18291890542E+02 0.19769668466E+02 0.20822441138E+02
 0.21536780422E+02 0.21923686063E+02 0.21822821712E+02 0.20827435158E+02 0.18718843755E+02
 0.15795093217E+02 0.12897893429E+02 0.11083102704E+02 0.11083292517E+02 0.12898194613E+02
 0.15795131701E+02 0.18718742781E+02 0.20827609262E+02 0.21823255395E+02 0.21923822382E+02
 0.21823216216E+02 0.20827591479E+02 0.18718732287E+02 0.15795038126E+02 0.12897988372E+02
 0.11083133024E+02 0.11083212096E+02 0.12898272455E+02 0.15795468827E+02 0.18718964039E+02
 0.20827328175E+02 0.21822684421E+02 0.21923615595E+02 0.21536746437E+02 0.20822456662E+02
 0.19769805416E+02 0.18292103983E+02 0.16499771895E+02 0.14804486141E+02 0.13759402721E+02
 0.13759445188E+02 0.14804690024E+02 0.16500154463E+02 0.18292372602E+02 0.19769605574E+02
 0.20821884966E+02 0.21536366408E+02 0.21823216216E+02 0.21304365730E+02 0.19345809924E+02
 0.16022931952E+02 0.12130420209E+02 0.89663011021E+01 0.77462997134E+01 0.89671513206E+01
 0.12131445043E+02 0.16023390645E+02 0.19345503652E+02 0.21303685645E+02 0.21822706156E+02
 0.21360045837E+02 0.20458696444E+02 0.19316991963E+02 0.17988666751E+02 0.16510645638E+02
 0.15048102775E+02 0.13936134311E+02 0.13517379286E+02 0.13936642231E+02 0.15048662665E+02
 0.16510804338E+02 0.17988353243E+02 0.19316476569E+02 0.20458335154E+02 0.21360098361E+02
 0.20827591479E+02 0.19345809924E+02 0.16081879107E+02 0.11597461974E+02 0.72073292025E+01
 0.44796958457E+01 0.44801587901E+01 0.72081922932E+01 0.11597841881E+02 0.16081623418E+02
 0.19345484780E+02 0.20827554640E+02 0.20750036590E+02 0.19785188036E+02 0.18513759049E+02
 0.17124956104E+02 0.15708667902E+02 0.14372524975E+02 0.13282511580E+02 0.12656826682E+02
 0.12657113053E+02 0.13282987493E+02 0.14372586948E+02 0.15708322464E+02 0.17124731011E+02
 0.18513897754E+02 0.19785379079E+02 0.20750028848E+02 0.18718732287E+02 0.16022931952E+02
 0.11597461974E+02 0.65266561893E+01 0.24610612216E+01 0.90337604115E+00 0.24609163230E+01
 0.65264997291E+01 0.11597436378E+02 0.16023058526E+02 0.18718887944E+02 0.19476312371E+02
 0.18805004550E+02 0.17496840042E+02 0.16040078625E+02 0.14593502956E+02 0.13259146221E+02
 0.12148616243E+02 0.11398369474E+02 0.11131468662E+02 0.11398329890E+02 0.12148504872E+02
 0.13259006239E+02 0.14593469853E+02 0.16040237166E+02 0.17497103533E+02 0.18805183170E+02
 0.19476293643E+02 0.15795038126E+02 0.12130420209E+02 0.72073292025E+01 0.24610612216E+01
 -.46166209261E+00 -.46190690151E+00 0.24606540519E+01 0.72072600276E+01 0.12130643594E+02
 0.15795076710E+02 0.17517090754E+02 0.17456749431E+02 0.16321628335E+02 0.14861293788E+02
 0.13387701220E+02 0.12033026282E+02 0.10891493218E+02 0.10053240708E+02 0.96053791845E+01
 0.96052114070E+01 0.10052990473E+02 0.10891523016E+02 0.12033244236E+02 0.13387722122E+02
 0.14861071981E+02 0.16321553114E+02 0.17457031873E+02 0.17517403021E+02 0.12897988372E+02
 0.89663011021E+01 0.44796958457E+01 0.90337604115E+00 -.46190690151E+00 0.90325317596E+00
 0.44795050499E+01 0.89661081494E+01 0.12897812617E+02 0.15266669586E+02 0.15835370120E+02
 0.15048952811E+02 0.13667685297E+02 0.12203834822E+02 0.10834419706E+02 0.96630777978E+01
 0.87623333993E+01 0.81915869148E+01 0.79955570915E+01 0.81915903345E+01 0.87624149629E+01
 0.96631994508E+01 0.10834421888E+02 0.12203666412E+02 0.13667502162E+02 0.15048922846E+02
 0.15835490792E+02 0.15266840320E+02 0.11083133024E+02 0.77462997134E+01 0.44801587901E+01
 0.24609163230E+01 0.24606540519E+01 0.44795050499E+01 0.77456187280E+01 0.11082831180E+02
 0.13440690808E+02 0.14307060339E+02 0.13817013513E+02 0.12555821310E+02 0.11123115105E+02
 0.97521752156E+01 0.85572934760E+01 0.76085771286E+01 0.69506501016E+01 0.66135424099E+01
 0.66136591072E+01 0.69508297286E+01 0.76085550519E+01 0.85570990423E+01 0.97521000826E+01
 0.11123289681E+02 0.12555996323E+02 0.13816878619E+02 0.14306685545E+02 0.13440497967E+02
 0.11083212096E+02 0.89671513206E+01 0.72081922932E+01 0.65264997291E+01 0.72072600276E+01
 0.89661081494E+01 0.11082831180E+02 0.12735679239E+02 0.13366013046E+02 0.12890759700E+02
 0.11669233712E+02 0.10234623447E+02 0.88531998058E+01 0.76339157792E+01 0.66442815786E+01
 0.59206808528E+01 0.54809818652E+01 0.53335574678E+01 0.54809810673E+01 0.59206620357E+01
 0.66442327936E+01 0.76338697494E+01 0.88532367024E+01 0.10234773770E+02 0.11669354313E+02
 0.12890606066E+02 0.13365569416E+02 0.12735376493E+02 0.12898272455E+02 0.12131445043E+02
 0.11597841881E+02 0.11597436378E+02 0.12130643594E+02 0.12897812617E+02 0.13440690808E+02
 0.13366013046E+02 0.12543250723E+02 0.11168512857E+02 0.96407449374E+01 0.82016827014E+01
 0.69365551083E+01 0.58998131563E+01 0.51184879776E+01 0.45999603059E+01 0.43421721987E+01
 0.43420790579E+01 0.45998482957E+01 0.51185791477E+01 0.59000077983E+01 0.69365841176E+01
 0.82015398035E+01 0.96406791992E+01 0.11168586895E+02 0.12543214966E+02 0.13365764043E+02
 0.13440593926E+02 0.15795468827E+02 0.16023390645E+02 0.16081623418E+02 0.16023058526E+02
 0.15795076710E+02 0.15266669586E+02 0.14307060339E+02 0.12890759700E+02 0.11168512857E+02
 0.94306190493E+01 0.78566914692E+01 0.65004169651E+01 0.53937997941E+01 0.45484909962E+01
 0.39599090899E+01 0.36151451691E+01 0.35018580170E+01 0.36151293374E+01 0.39599462549E+01
 0.45485890950E+01 0.53938773827E+01 0.65004257812E+01 0.78566726573E+01 0.94305996185E+01
 0.11168442151E+02 0.12890624925E+02 0.14306997631E+02 0.15266849326E+02 0.18718964039E+02
 0.19345503652E+02 0.19345484780E+02 0.18718887944E+02 0.17517090754E+02 0.15835370120E+02
 0.13817013513E+02 0.11669233712E+02 0.96407449374E+01 0.78566914692E+01 0.63515477399E+01
 0.51375266515E+01 0.42086798762E+01 0.35457202021E+01 0.31234741167E+01 0.29191198123E+01
 0.29191637246E+01 0.31235352040E+01 0.35456976525E+01 0.42086036372E+01 0.51375181127E+01
 0.63516368092E+01 0.78567669440E+01 0.96407137044E+01 0.11669154131E+02 0.13817014565E+02
 0.15835482128E+02 0.17517224965E+02 0.20827328175E+02 0.21303685645E+02 0.20827554640E+02
 0.19476312371E+02 0.17456749431E+02 0.15048952811E+02 0.12555821310E+02 0.10234623447E+02
 0.82016827014E+01 0.65004169651E+01 0.51375266515E+01 0.40957598455E+01 0.33428271199E+01
 0.28407975468E+01 0.25553404027E+01 0.24629569250E+01 0.25553357415E+01 0.28407829256E+01
 0.33427955171E+01 0.40957035451E+01 0.51374457300E+01 0.65003445147E+01 0.82016925128E+01
 0.10234773536E+02 0.12556063022E+02 0.15049121649E+02 0.17456696498E+02 0.19476066379E+02
 0.21822684421E+02 0.21822706156E+02 0.20750036590E+02 0.18805004550E+02 0.16321628335E+02
 0.13667685297E+02 0.11123115105E+02 0.88531998058E+01 0.69365551083E+01 0.53937997941E+01
 0.42086798762E+01 0.33428271199E+01 0.27486989322E+01 0.23812249267E+01 0.22064403026E+01
 0.22064052216E+01 0.23811611097E+01 0.27486706763E+01 0.33428325318E+01 0.42086658723E+01
 0.53937536384E+01 0.69365318726E+01 0.88532449648E+01 0.11123196532E+02 0.13667727764E+02
 0.16321597685E+02 0.18804933364E+02 0.20749976534E+02 0.21923615595E+02 0.21360045837E+02
 0.19785188036E+02 0.17496840042E+02 0.14861293788E+02 0.12203834822E+02 0.97521752156E+01
 0.76339157792E+01 0.58998131563E+01 0.45484909962E+01 0.35457202021E+01 0.28407975468E+01
 0.23812249267E+01 0.21238484130E+01 0.20411666272E+01 0.21238191794E+01 0.23811587402E+01
 0.28407322493E+01 0.35457387978E+01 0.45486283254E+01 0.58999775963E+01 0.76339442162E+01
 0.97519885540E+01 0.12203538394E+02 0.14861110918E+02 0.17496923363E+02 0.19785474680E+02
 0.21360296228E+02 0.21536746437E+02 0.20458696444E+02 0.18513759049E+02 0.16040078625E+02
 0.13387701220E+02 0.10834419706E+02 0.85572934760E+01 0.66442815786E+01 0.51184879776E+01
 0.39599090899E+01 0.31234741167E+01 0.25553404027E+01 0.22064403026E+01 0.20411666272E+01
 0.20411922088E+01 0.22064820434E+01 0.25553462891E+01 0.31234501071E+01 0.39599003475E+01
 0.51185039953E+01 0.66442887279E+01 0.85572812570E+01 0.10834423100E+02 0.13387735431E+02
 0.16040092365E+02 0.18513695414E+02 0.20458585306E+02 0.21536690204E+02 0.20822456662E+02
 0.19316991963E+02 0.17124956104E+02 0.14593502956E+02 0.12033026282E+02 0.96630777978E+01
 0.76085771286E+01 0.59206808528E+01 0.45999603059E+01 0.36151451691E+01 0.29191198123E+01
 0.24629569250E+01 0.22064052216E+01 0.21238191794E+01 0.22064820434E+01 0.24630820812E+01
 0.29192117165E+01 0.36151008057E+01 0.45997616897E+01 0.59204674600E+01 0.76085674516E+01
 0.96633705609E+01 0.12033459259E+02 0.14593734368E+02 0.17124747096E+02 0.19316452979E+02
 0.20822000630E+02 0.21360348305E+02 0.19769805416E+02 0.17988666751E+02 0.15708667902E+02
 0.13259146221E+02 0.10891493218E+02 0.87623333993E+01 0.69506501016E+01 0.54809818652E+01
 0.43421721987E+01 0.35018580170E+01 0.29191637246E+01 0.25553357415E+01 0.23811611097E+01
 0.23811587402E+01 0.25553462891E+01 0.29192117165E+01 0.35019288212E+01 0.43422155160E+01
 0.54809695998E+01 0.69506166220E+01 0.87623400024E+01 0.10891554511E+02 0.13259208754E+02
 0.15708667345E+02 0.17988594521E+02 0.19769715465E+02 0.20750047408E+02 0.20750087155E+02
 0.18292103983E+02 0.16510645638E+02 0.14372524975E+02 0.12148616243E+02 0.10053240708E+02
 0.81915869148E+01 0.66135424099E+01 0.53335574678E+01 0.43420790579E+01 0.36151293374E+01
 0.31235352040E+01 0.28407829256E+01 0.27486706763E+01 0.28407322493E+01 0.31234501071E+01
 0.36151008057E+01 0.43422155160E+01 0.53338202392E+01 0.66137179618E+01 0.81914926542E+01
 0.10052928490E+02 0.12148330056E+02 0.14372478510E+02 0.16510861950E+02 0.18292431361E+02
 0.19476421527E+02 0.19891900264E+02 0.19476188948E+02 0.16499771895E+02 0.15048102775E+02
 0.13282511580E+02 0.11398369474E+02 0.96053791845E+01 0.79955570915E+01 0.66136591072E+01
 0.54809810673E+01 0.45998482957E+01 0.39599462549E+01 0.35456976525E+01 0.33427955171E+01
 0.33428325318E+01 0.35457387978E+01 0.39599003475E+01 0.45997616897E+01 0.54809695998E+01
 0.66137179618E+01 0.79955645601E+01 0.96053039571E+01 0.11398348930E+02 0.13282649785E+02
 0.15048284432E+02 0.16499796012E+02 0.17517114172E+02 0.18038567311E+02 0.18038657189E+02
 0.17517251783E+02 0.14804486141E+02 0.13936134311E+02 0.12656826682E+02 0.11131468662E+02
 0.96052114070E+01 0.81915903345E+01 0.69508297286E+01 0.59206620357E+01 0.51185791477E+01
 0.45485890950E+01 0.42086036372E+01 0.40957035451E+01 0.42086658723E+01 0.45486283254E+01
 0.51185039953E+01 0.59204674600E+01 0.69506166220E+01 0.81914926542E+01 0.96053039571E+01
 0.11131728172E+02 0.12657140992E+02 0.13936340079E+02 0.14804459287E+02 0.15266479585E+02
 0.15447722427E+02 0.15488471327E+02 0.15447937477E+02 0.15266704089E+02 0.13759402721E+02
 0.13517379286E+02 0.12657113053E+02 0.11398329890E+02 0.10052990473E+02 0.87624149629E+01
 0.76085550519E+01 0.66442327936E+01 0.59000077983E+01 0.53938773827E+01 0.51375181127E+01
 0.51374457300E+01 0.53937536384E+01 0.58999775963E+01 0.66442887279E+01 0.76085674516E+01
 0.87623400024E+01 0.10052928490E+02 0.11398348930E+02 0.12657140992E+02 0.13517366347E+02
 0.13759488021E+02 0.13440670041E+02 0.12870960579E+02 0.12449323982E+02 0.12449092252E+02
 0.12870480167E+02 0.13440323619E+02 0.13759445188E+02 0.13936642231E+02 0.13282987493E+02
 0.12148504872E+02 0.10891523016E+02 0.96631994508E+01 0.85570990423E+01 0.76338697494E+01
 0.69365841176E+01 0.65004257812E+01 0.63516368092E+01 0.65003445147E+01 0.69365318726E+01
 0.76339442162E+01 0.85572812570E+01 0.96633705609E+01 0.10891554511E+02 0.12148330056E+02
 0.13282649785E+02 0.13936340079E+02 0.13759488021E+02 0.12735702905E+02 0.11253860300E+02
 0.99596370584E+01 0.94478459937E+01 0.99589244396E+01 0.11252935438E+02 0.12735122310E+02
 0.14804690024E+02 0.15048662665E+02 0.14372586948E+02 0.13259006239E+02 0.12033244236E+02
 0.10834421888E+02 0.97521000826E+01 0.88532367024E+01 0.82015398035E+01 0.78566726573E+01
 0.78567669440E+01 0.82016925128E+01 0.88532449648E+01 0.97519885540E+01 0.10834423100E+02
 0.12033459259E+02 0.13259208754E+02 0.14372478510E+02 0.15048284432E+02 0.14804459287E+02
 0.13440670041E+02 0.11253860300E+02 0.89962286236E+01 0.75645381787E+01 0.75641963470E+01
 0.89954142203E+01 0.11253077518E+02 0.13440370846E+02 0.16500154463E+02 0.16510804338E+02
 0.15708322464E+02 0.14593469853E+02 0.13387722122E+02 0.12203666412E+02 0.11123289681E+02
 0.10234773770E+02 0.96406791992E+01 0.94305996185E+01 0.96407137044E+01 0.10234773536E+02
 0.11123196532E+02 0.12203538394E+02 0.13387735431E+02 0.14593734368E+02 0.15708667345E+02
 0.16510861950E+02 0.16499796012E+02 0.15266479585E+02 0.12870960579E+02 0.99596370584E+01
 0.75645381787E+01 0.66371439512E+01 0.75636756598E+01 0.99587185966E+01 0.12870711611E+02
 0.15266839811E+02 0.18292372602E+02 0.17988353243E+02 0.17124731011E+02 0.16040237166E+02
 0.14861071981E+02 0.13667502162E+02 0.12555996323E+02 0.11669354313E+02 0.11168586895E+02
 0.11168442151E+02 0.11669154131E+02 0.12556063022E+02 0.13667727764E+02 0.14861110918E+02
 0.16040092365E+02 0.17124747096E+02 0.17988594521E+02 0.18292431361E+02 0.17517114172E+02
 0.15447722427E+02 0.12449323982E+02 0.94478459937E+01 0.75641963470E+01 0.75636756598E+01
 0.94468535051E+01 0.12448842336E+02 0.15447965826E+02 0.17517453579E+02 0.19769605574E+02
 0.19316476569E+02 0.18513897754E+02 0.17497103533E+02 0.16321553114E+02 0.15048922846E+02
 0.13816878619E+02 0.12890606066E+02 0.12543214966E+02 0.12890624925E+02 0.13817014565E+02
 0.15049121649E+02 0.16321597685E+02 0.17496923363E+02 0.18513695414E+02 0.19316452979E+02
 0.19769715465E+02 0.19476421527E+02 0.18038567311E+02 0.15488471327E+02 0.12449092252E+02
 0.99589244396E+01 0.89954142203E+01 0.99587185966E+01 0.12448842336E+02 0.15488325394E+02
 0.18038506148E+02 0.19476331590E+02 0.20821884966E+02 0.20458335154E+02 0.19785379079E+02
 0.18805183170E+02 0.17457031873E+02 0.15835490792E+02 0.14306685545E+02 0.13365569416E+02
 0.13365764043E+02 0.14306997631E+02 0.15835482128E+02 0.17456696498E+02 0.18804933364E+02
 0.19785474680E+02 0.20458585306E+02 0.20822000630E+02 0.20750047408E+02 0.19891900264E+02
 0.18038657189E+02 0.15447937477E+02 0.12870480167E+02 0.11252935438E+02 0.11253077518E+02
 0.12870711611E+02 0.15447965826E+02 0.18038506148E+02 0.19891805207E+02 0.20750040709E+02
 0.21536366408E+02 0.21360098361E+02 0.20750028848E+02 0.19476293643E+02 0.17517403021E+02
 0.15266840320E+02 0.13440497967E+02 0.12735376493E+02 0.13440593926E+02 0.15266849326E+02
 0.17517224965E+02 0.19476066379E+02 0.20749976534E+02 0.21360296228E+02 0.21536690204E+02
 0.21360348305E+02 0.20750087155E+02 0.19476188948E+02 0.17517251783E+02 0.15266704089E+02
 0.13440323619E+02 0.12735122310E+02 0.13440370846E+02 0.15266839811E+02 0.17517453579E+02
 0.19476331590E+02 0.20750040709E+02 0.21360098361E+02 0.21283958779E+02 0.20827567149E+02
 0.19010379492E+02 0.15896149821E+02 0.12233353451E+02 0.92502608914E+01 0.80988023873E+01
 0.92501717519E+01 0.12233343332E+02 0.15896321220E+02 0.19010633689E+02 0.20827742101E+02
 0.21284017882E+02 0.20821871019E+02 0.19947088419E+02 0.18838431283E+02 0.17550978640E+02
 0.16128994359E+02 0.14728999497E+02 0.13667141053E+02 0.13267347346E+02 0.13666893269E+02
 0.14728733097E+02 0.16128899671E+02 0.17551027591E+02 0.18838488442E+02 0.19947100256E+02
 0.20821860636E+02 0.20827567149E+02 0.19345773943E+02 0.16081895071E+02 0.11597519217E+02
 0.72072565376E+01 0.44793479786E+01 0.44796815928E+01 0.72079512421E+01 0.11598024433E+02
 0.16082026024E+02 0.19345769698E+02 0.20827610148E+02 0.20749981109E+02 0.19785122870E+02
 0.18513683638E+02 0.17124897956E+02 0.15708723041E+02 0.14372713663E+02 0.13282701504E+02
 0.12656873621E+02 0.12657025299E+02 0.13282892107E+02 0.14372564851E+02 0.15708335610E+02
 0.17124708903E+02 0.18513840490E+02 0.19785338746E+02 0.20750016703E+02 0.19010379492E+02
 0.16081895071E+02 0.11337335798E+02 0.59281259954E+01 0.16008143202E+01 -.55562597813E-01