       N       E                     dE             d eps       ncg     rms          rms(c)
DAV:   1    -0.361303148537E+01   -0.36130E+01   -0.20945E+03   920   0.428E+02
DAV:   2    -0.115436703926E+02   -0.79306E+01   -0.77772E+01  1408   0.560E+01
DAV:   3    -0.116061653574E+02   -0.62495E-01   -0.62495E-01  1128   0.603E+00
DAV:   4    -0.116063108334E+02   -0.14548E-03   -0.14548E-03  1472   0.277E-01
DAV:   5    -0.116063108848E+02   -0.51411E-07   -0.52116E-07  1160   0.430E-03    0.373E+00
DAV:   6    -0.112725948119E+02    0.33372E+00   -0.26371E-01  1008   0.269E+00    0.207E+00
DAV:   7    -0.111423615818E+02    0.13023E+00   -0.36402E-01  1072   0.320E+00    0.215E-01
DAV:   8    -0.111424759078E+02   -0.11433E-03   -0.90191E-03   960   0.717E-01    0.588E-02
DAV:   9    -0.111423090611E+02    0.16685E-03   -0.54227E-04  1336   0.138E-01    0.130E-02
DAV:  10    -0.111423119554E+02   -0.28944E-05   -0.81515E-06   544   0.266E-02
   1 F= -.11142312E+02 E0= -.11141985E+02  d E =-.653108E-03
