LAMMPS (17 Nov 2016)
Lattice spacing in x,y,z = 1.82574 1.82574 1.82574
Created orthogonal box = (0 0 -0.182574) to (73.0297 73.0297 0.182574)
  7 by 4 by 1 MPI processor grid
Created 3200 atoms
Neighbor list info ...
  1 neighbor list requests
  update every 1 steps, delay 0 steps, check yes
  max neighbors/atom: 2000, page size: 100000
  master list distance cutoff = 2.8
  ghost atom cutoff = 2.8
  binsize = 1.4, bins = 53 53 1
Setting up Verlet run ...
  Unit style    : lj
  Current step  : 0
  Time step     : 0.005
Memory usage per processor = 2.47677 Mbytes
Step Temp E_pair E_mol TotEng Press 
       0            1     -1.56492            0   -0.5652325   -1.5346995 
    1000    1.0205038   -1.5851365            0  -0.56495162   0.98471316 
    2000   0.99994246     -1.58217            0  -0.58254003    1.0183359 
    3000   0.99547188   -1.5809046            0  -0.58574383    1.0296078 
    4000    1.0098042   -1.5938243            0  -0.58433562   0.95736721 
    5000   0.99637516   -1.5885123            0  -0.59244852    1.0697351 
Loop time of 175.308 on 28 procs for 5000 steps with 3200 atoms

Performance: 12321.150 tau/day, 28.521 timesteps/s
96.3% CPU use with 28 MPI tasks x no OpenMP threads

MPI task timing breakdown:
Section |  min time  |  avg time  |  max time  |%varavg| %total
---------------------------------------------------------------
Pair    | 0.055653   | 0.059604   | 0.067662   |   1.2 |  0.03
Neigh   | 0.019097   | 0.020199   | 0.021875   |   0.5 |  0.01
Comm    | 13.285     | 73.409     | 149.02     | 454.6 | 41.87
Output  | 0.22996    | 0.32415    | 0.38377    |   7.6 |  0.18
Modify  | 0.035404   | 0.036644   | 0.040404   |   0.6 |  0.02
Other   |            | 101.5      |            |       | 57.87

Nlocal:    114.286 ave 120 max 109 min
Histogram: 3 3 3 4 2 1 5 3 1 3
Nghost:    114.857 ave 123 max 105 min
Histogram: 2 1 5 3 2 1 3 5 3 3
Neighs:    800.607 ave 907 max 738 min
Histogram: 3 5 6 4 1 4 2 2 0 1

Total # of neighbors = 22417
Ave neighs/atom = 7.00531
Neighbor list builds = 601
Dangerous builds = 0
Setting up Verlet run ...
  Unit style    : lj
  Current step  : 0
  Time step     : 0.005
Memory usage per processor = 2.85177 Mbytes
Step Temp c_vacf[4] v_vacf 
       0   0.99637516    1.9921276            0 
    1000   0.98969079  0.035920532   0.28253517 
    2000    1.0033369  0.039348785   0.32875961 
    3000    1.0038557  0.016116747   0.35137968 
    4000    1.0055211  0.015535178   0.37747149 
    5000    1.0096696 0.0033787399   0.36735886 
    6000   0.99721542  0.022941265   0.36250444 
    7000    1.0120218 -0.022685447    0.3868351 
    8000    1.0032484 0.0064300503   0.37634301 
    9000   0.99346892 -0.0061363023   0.36275366 
   10000    1.0057396  0.037596185   0.36771699 
   11000    1.0012425 0.0071327526   0.36765581 
   12000   0.98547837 -0.026176151   0.38405195 
   13000    1.0094353  0.018183957   0.37443843 
   14000   0.99024549  0.026096826   0.39503626 
   15000    0.9942355  0.027140849    0.3996325 
   16000   0.99426799 -0.012522208   0.40671785 
   17000    0.9996888 -0.0070133366   0.41696652 
   18000    0.9861512 0.0060993742   0.40967373 
   19000   0.99239344 -0.019356079   0.43108616 
   20000   0.99934633 -0.013851958   0.40568134 
   21000   0.98597002 -0.00025452227   0.40854851 
   22000   0.98746868  0.015673123   0.37942964 
   23000   0.99497672 -0.0087396488   0.39262117 
   24000     1.012849 -0.022360475   0.42584912 
   25000   0.99332024 0.0037584508   0.41936109 
   26000    1.0023735 0.0077774365    0.4079054 
   27000    1.0104953 -0.017031203   0.38803093 
   28000   0.97855884 -0.016114649   0.39567802 
   29000    0.9890494 -0.032185131   0.38548032 
   30000    1.0080767  0.025634095   0.38600003 
   31000   0.99025445 0.0084831224   0.39325359 
   32000   0.99870164  0.010652816   0.41050513 
   33000    1.0036398 -0.021840073   0.41830627 
   34000    1.0001245 -0.015509313   0.42150599 
   35000   0.99617631  0.016611782   0.40339097 
   36000    1.0031011 0.0073823449   0.40610992 
   37000   0.99976231 -0.020350791   0.39888923 
   38000    1.0072659 -0.0099773526   0.40556615 
   39000    1.0044934 -0.012896584   0.40145734 
   40000     1.001455  0.021957174   0.43896906 
   41000    1.0082534  0.029144658   0.43664976 
   42000    1.0034585 -0.0028678339   0.44230865 
   43000   0.99689819  0.069062681   0.44096884 
   44000   0.99995528 -0.018370176    0.4537772 
   45000   0.99634505 0.00056543108   0.45508856 
   46000   0.99890103  0.021848581   0.46445477 
   47000    1.0008908 -0.0052160565   0.48648195 
   48000    1.0015025  0.025281012   0.47113998 
   49000    1.0009601 0.0071657458   0.48583003 
   50000   0.98416585 -0.0014032599   0.46708453 
   51000   0.99180227 -0.009996918   0.44595812 
   52000    1.0088427 -0.043646281   0.45456562 
   53000    1.0006221 0.0027440108    0.4282848 
   54000   0.97931769  0.023420785   0.41452542 
   55000    1.0028497  0.035100336   0.39413197 
   56000    0.9907661 -0.011136131   0.34786168 
   57000    1.0063426 -0.022314817   0.34882561 
   58000    1.0165682 -0.013998123   0.35083771 
   59000    1.0187269 0.0062138529   0.33914761 
   60000   0.98919215 0.0075287838   0.33823802 
   61000   0.99536147 0.0086585845    0.3394876 
   62000   0.98929862 -0.022255562    0.3480268 
   63000   0.99299175 -0.027137495   0.34597003 
   64000    0.9989254 -0.0066464195   0.35143869 
   65000    1.0044954 -0.013447903   0.36195139 
   66000   0.99981215   0.02781365   0.35152116 
   67000    0.9913623  -0.04922627    0.3432688 
   68000   0.99583339  0.016330731   0.36213011 
   69000   0.98975038 0.0020420074   0.36688723 
   70000   0.98524794 -0.014681645   0.38526017 
   71000    1.0097963 -0.025116689    0.3577706 
   72000    1.0121365 -0.021745447   0.34347667 
   73000   0.99014149 -0.012027892   0.33689663 
   74000   0.99995045 0.0023626099   0.30683794 
   75000    1.0071871 -0.015877768   0.32419272 
