fcc Si                                  
   3.90000000000000     
     0.445088    0.445088    0.000000
     0.000000    0.445088    0.445088
     0.445088    0.000000    0.445088
   Si
     1
Direct
  0.000000  0.000000  0.000000
 
   20   20   20
 -.19553745505E+01 -.14727541407E+01 -.18047949673E+00 0.15185443312E+01 0.31376072398E+01
 0.42951592001E+01 0.48425758330E+01 0.48790860557E+01 0.46639713271E+01 0.44623682415E+01
 0.43858666908E+01 0.44623682415E+01 0.46639713271E+01 0.48790860557E+01 0.48425758330E+01
 0.42951592001E+01 0.31376072398E+01 0.15185443312E+01 -.18047949673E+00 -.14727541407E+01
 -.14727541407E+01 -.58654552796E+00 0.90025423504E+00 0.25345489982E+01 0.38784195030E+01
 0.46714367805E+01 0.49006937293E+01 0.47589543000E+01 0.45248034457E+01 0.43797182158E+01
 0.43796923898E+01 0.45247703481E+01 0.47589659248E+01 0.49007194641E+01 0.46714280620E+01
 0.38784090107E+01 0.25346037728E+01 0.90036804802E+00 -.58644180410E+00 -.14727145199E+01
 -.18047949673E+00 0.90025423504E+00 0.23025595542E+01 0.36067798264E+01 0.44946007584E+01
 0.48569301165E+01 0.47998879985E+01 0.45620311580E+01 0.43635453659E+01 0.42892528244E+01
 0.43635198949E+01 0.45620243325E+01 0.47999207382E+01 0.48569619105E+01 0.44945923436E+01
 0.36067833428E+01 0.23026855401E+01 0.90051182934E+00 -.18025590715E+00 -.58644180410E+00
 0.15185443312E+01 0.25345489982E+01 0.36067798264E+01 0.44205465531E+01 0.48107447475E+01
 0.48047590382E+01 0.45780920770E+01 0.43435196650E+01 0.42062371873E+01 0.42062292325E+01
 0.43435108020E+01 0.45781130210E+01 0.48048110578E+01 0.48107817635E+01 0.44205488083E+01
 0.36068339626E+01 0.25347592265E+01 0.15188396111E+01 0.90051182934E+00 0.90036804802E+00
 0.31376072398E+01 0.38784195030E+01 0.44946007584E+01 0.48107447475E+01 0.48019442887E+01
 0.45820043378E+01 0.43273097973E+01 0.41439069786E+01 0.40773706702E+01 0.41438752104E+01
 0.43273054543E+01 0.45820564185E+01 0.48020069821E+01 0.48107677755E+01 0.44946178551E+01
 0.38785142203E+01 0.31377889911E+01 0.25347592265E+01 0.23026855401E+01 0.25346037728E+01
 0.42951592001E+01 0.46714367805E+01 0.48569301165E+01 0.48047590382E+01 0.45820043378E+01
 0.43211014456E+01 0.41108041487E+01 0.39941563963E+01 0.39941373807E+01 0.41107754662E+01
 0.43211084442E+01 0.45820461643E+01 0.48047927019E+01 0.48569364035E+01 0.46714560921E+01
 0.42952353172E+01 0.38785142203E+01 0.36068339626E+01 0.36067833428E+01 0.38784090107E+01
 0.48425758330E+01 0.49006937293E+01 0.47998879985E+01 0.45780920770E+01 0.43273097973E+01
 0.41108041487E+01 0.39655365717E+01 0.39145282822E+01 0.39655264330E+01 0.41107877698E+01
 0.43273010204E+01 0.45781009285E+01 0.47999080121E+01 0.49007109951E+01 0.48425935339E+01
 0.46714560921E+01 0.44946178551E+01 0.44205488083E+01 0.44945923436E+01 0.46714280620E+01
 0.48790860557E+01 0.47589543000E+01 0.45620311580E+01 0.43435196650E+01 0.41439069786E+01
 0.39941563963E+01 0.39145282822E+01 0.39145236949E+01 0.39941452353E+01 0.41438940357E+01
 0.43435146240E+01 0.45620411661E+01 0.47589764351E+01 0.48791025606E+01 0.49007109951E+01
 0.48569364035E+01 0.48107677755E+01 0.48107817635E+01 0.48569619105E+01 0.49007194641E+01
 0.46639713271E+01 0.45248034457E+01 0.43635453659E+01 0.42062371873E+01 0.40773706702E+01
 0.39941373807E+01 0.39655264330E+01 0.39941452353E+01 0.40773733631E+01 0.42062294750E+01
 0.43635410309E+01 0.45248175013E+01 0.46639947024E+01 0.47589764351E+01 0.47999080121E+01
 0.48047927019E+01 0.48020069821E+01 0.48048110578E+01 0.47999207382E+01 0.47589659248E+01
 0.44623682415E+01 0.43797182158E+01 0.42892528244E+01 0.42062292325E+01 0.41438752104E+01
 0.41107754662E+01 0.41107877698E+01 0.41438940357E+01 0.42062294750E+01 0.42892419889E+01
 0.43797283005E+01 0.44624113639E+01 0.45248175013E+01 0.45620411661E+01 0.45781009285E+01
 0.45820461643E+01 0.45820564185E+01 0.45781130210E+01 0.45620243325E+01 0.45247703481E+01
 0.43858666908E+01 0.43796923898E+01 0.43635198949E+01 0.43435108020E+01 0.43273054543E+01
 0.43211084442E+01 0.43273010204E+01 0.43435146240E+01 0.43635410309E+01 0.43797283005E+01
 0.43859076292E+01 0.43797283005E+01 0.43635410309E+01 0.43435146240E+01 0.43273010204E+01
 0.43211084442E+01 0.43273054543E+01 0.43435108020E+01 0.43635198949E+01 0.43796923898E+01
 0.44623682415E+01 0.45247703481E+01 0.45620243325E+01 0.45781130210E+01 0.45820564185E+01
 0.45820461643E+01 0.45781009285E+01 0.45620411661E+01 0.45248175013E+01 0.44624113639E+01
 0.43797283005E+01 0.42892419889E+01 0.42062294750E+01 0.41438940357E+01 0.41107877698E+01
 0.41107754662E+01 0.41438752104E+01 0.42062292325E+01 0.42892528244E+01 0.43797182158E+01
 0.46639713271E+01 0.47589659248E+01 0.47999207382E+01 0.48048110578E+01 0.48020069821E+01
 0.48047927019E+01 0.47999080121E+01 0.47589764351E+01 0.46639947024E+01 0.45248175013E+01
 0.43635410309E+01 0.42062294750E+01 0.40773733631E+01 0.39941452353E+01 0.39655264330E+01
 0.39941373807E+01 0.40773706702E+01 0.42062371873E+01 0.43635453659E+01 0.45248034457E+01
 0.48790860557E+01 0.49007194641E+01 0.48569619105E+01 0.48107817635E+01 0.48107677755E+01
 0.48569364035E+01 0.49007109951E+01 0.48791025606E+01 0.47589764351E+01 0.45620411661E+01
 0.43435146240E+01 0.41438940357E+01 0.39941452353E+01 0.39145236949E+01 0.39145282822E+01
 0.39941563963E+01 0.41439069786E+01 0.43435196650E+01 0.45620311580E+01 0.47589543000E+01
 0.48425758330E+01 0.46714280620E+01 0.44945923436E+01 0.44205488083E+01 0.44946178551E+01
 0.46714560921E+01 0.48425935339E+01 0.49007109951E+01 0.47999080121E+01 0.45781009285E+01
 0.43273010204E+01 0.41107877698E+01 0.39655264330E+01 0.39145282822E+01 0.39655365717E+01
 0.41108041487E+01 0.43273097973E+01 0.45780920770E+01 0.47998879985E+01 0.49006937293E+01
 0.42951592001E+01 0.38784090107E+01 0.36067833428E+01 0.36068339626E+01 0.38785142203E+01
 0.42952353172E+01 0.46714560921E+01 0.48569364035E+01 0.48047927019E+01 0.45820461643E+01
 0.43211084442E+01 0.41107754662E+01 0.39941373807E+01 0.39941563963E+01 0.41108041487E+01
 0.43211014456E+01 0.45820043378E+01 0.48047590382E+01 0.48569301165E+01 0.46714367805E+01
 0.31376072398E+01 0.25346037728E+01 0.23026855401E+01 0.25347592265E+01 0.31377889911E+01
 0.38785142203E+01 0.44946178551E+01 0.48107677755E+01 0.48020069821E+01 0.45820564185E+01
 0.43273054543E+01 0.41438752104E+01 0.40773706702E+01 0.41439069786E+01 0.43273097973E+01
 0.45820043378E+01 0.48019442887E+01 0.48107447475E+01 0.44946007584E+01 0.38784195030E+01
 0.15185443312E+01 0.90036804802E+00 0.90051182934E+00 0.15188396111E+01 0.25347592265E+01
 0.36068339626E+01 0.44205488083E+01 0.48107817635E+01 0.48048110578E+01 0.45781130210E+01
 0.43435108020E+01 0.42062292325E+01 0.42062371873E+01 0.43435196650E+01 0.45780920770E+01
 0.48047590382E+01 0.48107447475E+01 0.44205465531E+01 0.36067798264E+01 0.25345489982E+01
 -.18047949673E+00 -.58644180410E+00 -.18025590715E+00 0.90051182934E+00 0.23026855401E+01
 0.36067833428E+01 0.44945923436E+01 0.48569619105E+01 0.47999207382E+01 0.45620243325E+01
 0.43635198949E+01 0.42892528244E+01 0.43635453659E+01 0.45620311580E+01 0.47998879985E+01
 0.48569301165E+01 0.44946007584E+01 0.36067798264E+01 0.23025595542E+01 0.90025423504E+00
 -.14727541407E+01 -.14727145199E+01 -.58644180410E+00 0.90036804802E+00 0.25346037728E+01
 0.38784090107E+01 0.46714280620E+01 0.49007194641E+01 0.47589659248E+01 0.45247703481E+01
 0.43796923898E+01 0.43797182158E+01 0.45248034457E+01 0.47589543000E+01 0.49006937293E+01
 0.46714367805E+01 0.38784195030E+01 0.25345489982E+01 0.90025423504E+00 -.58654552796E+00
 -.14729996385E+01 -.58634843314E+00 0.90068888086E+00 0.25348650129E+01 0.38784722978E+01
 0.46713896438E+01 0.49007391375E+01 0.47590607330E+01 0.45248304295E+01 0.43796705933E+01
 0.43796974127E+01 0.45248474652E+01 0.47589957490E+01 0.49006594755E+01 0.46714012897E+01
 0.38785039413E+01 0.25346884988E+01 0.90020469371E+00 -.58691231308E+00 -.14732513812E+01
 -.58634843314E+00 0.56615319431E+00 0.20677413223E+01 0.34758245774E+01 0.44513573834E+01
 0.48729025771E+01 0.48449853242E+01 0.46134047558E+01 0.44135706624E+01 0.43384396006E+01
 0.44135690244E+01 0.46133684450E+01 0.48449192388E+01 0.48728751942E+01 0.44513914689E+01
 0.34757780494E+01 0.20674066374E+01 0.56555365974E+00 -.58684491888E+00 -.10187800072E+01
 0.90068888086E+00 0.20677413223E+01 0.33176994491E+01 0.42962593981E+01 0.48090548477E+01
 0.48722554979E+01 0.46681456169E+01 0.44323123654E+01 0.42922799048E+01 0.42923011029E+01
 0.44323254616E+01 0.46680947273E+01 0.48721998229E+01 0.48090914662E+01 0.42963342934E+01
 0.33176057637E+01 0.20673674558E+01 0.90021700513E+00 0.19526410313E+00 0.19548118737E+00
 0.25348650129E+01 0.34758245774E+01 0.42962593981E+01 0.47778588083E+01 0.48722507996E+01
 0.46932403184E+01 0.44396943182E+01 0.42512688600E+01 0.41823007391E+01 0.42513334644E+01
 0.44397064150E+01 0.46931811947E+01 0.48722459219E+01 0.47779640217E+01 0.42963389670E+01
 0.34757213024E+01 0.25346106254E+01 0.17850481339E+01 0.14993785293E+01 0.17852595206E+01
 0.38784722978E+01 0.44513573834E+01 0.48090548477E+01 0.48722507996E+01 0.46996155551E+01
 0.44413570477E+01 0.42235764963E+01 0.41007999703E+01 0.41008264479E+01 0.42236181018E+01
 0.44413589096E+01 0.46995934515E+01 0.48722677716E+01 0.48091231296E+01 0.44514102505E+01
 0.38784467532E+01 0.32888602381E+01 0.29160436316E+01 0.29160851647E+01 0.32889377106E+01
 0.46713896438E+01 0.48729025771E+01 0.48722554979E+01 0.46932403184E+01 0.44413570477E+01
 0.42138559757E+01 0.40580001936E+01 0.40027421261E+01 0.40580216367E+01 0.42138780555E+01
 0.44413542573E+01 0.46932138423E+01 0.48722414427E+01 0.48729285596E+01 0.46714376538E+01
 0.43483215869E+01 0.40552175411E+01 0.39376118643E+01 0.40552124556E+01 0.43482914259E+01
 0.49007391375E+01 0.48449853242E+01 0.46681456169E+01 0.44396943182E+01 0.42235764963E+01
 0.40580001936E+01 0.39688695721E+01 0.39688809444E+01 0.40580263241E+01 0.42236004516E+01
 0.44396985250E+01 0.46681190519E+01 0.48449379950E+01 0.49007041540E+01 0.48287548665E+01
 0.46925943487E+01 0.45890795401E+01 0.45890561239E+01 0.46925528433E+01 0.48287460065E+01
 0.47590607330E+01 0.46134047558E+01 0.44323123654E+01 0.42512688600E+01 0.41007999703E+01
 0.40027421261E+01 0.39688809444E+01 0.40027629966E+01 0.41008442785E+01 0.42513177912E+01
 0.44323251179E+01 0.46133538071E+01 0.47589735226E+01 0.48313234239E+01 0.48298579118E+01
 0.47947987389E+01 0.47757664948E+01 0.47947768443E+01 0.48298623732E+01 0.48313844558E+01
 0.45248304295E+01 0.44135706624E+01 0.42922799048E+01 0.41823007391E+01 0.41008264479E+01
 0.40580216367E+01 0.40580263241E+01 0.41008442785E+01 0.41823338946E+01 0.42923137472E+01
 0.44135833413E+01 0.45248108722E+01 0.46075949963E+01 0.46528506121E+01 0.46638997173E+01
 0.46603198764E+01 0.46603359836E+01 0.46639420963E+01 0.46529042589E+01 0.46076407773E+01
 0.43796705933E+01 0.43384396006E+01 0.42923011029E+01 0.42513334644E+01 0.42236181018E+01
 0.42138780555E+01 0.42236004516E+01 0.42513177912E+01 0.42923137472E+01 0.43384869684E+01
 0.43797255989E+01 0.44071833317E+01 0.44171494072E+01 0.44131373077E+01 0.44042456807E+01
 0.43999589722E+01 0.44042860699E+01 0.44131899204E+01 0.44171749752E+01 0.44071603168E+01
 0.43796974127E+01 0.44135690244E+01 0.44323254616E+01 0.44397064150E+01 0.44413589096E+01
 0.44413542573E+01 0.44396985250E+01 0.44323251179E+01 0.44135833413E+01 0.43797255989E+01
 0.43315027353E+01 0.42747379745E+01 0.42188750004E+01 0.41743148914E+01 0.41496523630E+01
 0.41496620543E+01 0.41743320158E+01 0.42188777719E+01 0.42747177742E+01 0.43314704333E+01
 0.45248474652E+01 0.46133684450E+01 0.46680947273E+01 0.46931811947E+01 0.46995934515E+01
 0.46932138423E+01 0.46681190519E+01 0.46133538071E+01 0.45248108722E+01 0.44071833317E+01
 0.42747379745E+01 0.41470689927E+01 0.40428555262E+01 0.39755552412E+01 0.39524099012E+01
 0.39755608294E+01 0.40428480131E+01 0.41470445230E+01 0.42747233363E+01 0.44072016613E+01
 0.47589957490E+01 0.48449192388E+01 0.48721998229E+01 0.48722459219E+01 0.48722677716E+01
 0.48722414427E+01 0.48449379950E+01 0.47589735226E+01 0.46075949963E+01 0.44171494072E+01
 0.42188750004E+01 0.40428555262E+01 0.39133208743E+01 0.38452586946E+01 0.38452559203E+01
 0.39133149131E+01 0.40428541022E+01 0.42188889199E+01 0.44171832920E+01 0.46076379370E+01
 0.49006594755E+01 0.48728751942E+01 0.48090914662E+01 0.47779640217E+01 0.48091231296E+01
 0.48729285596E+01 0.49007041540E+01 0.48313234239E+01 0.46528506121E+01 0.44131373077E+01
 0.41743148914E+01 0.39755552412E+01 0.38452586946E+01 0.38000358874E+01 0.38452447762E+01
 0.39755525087E+01 0.41743481793E+01 0.44131997767E+01 0.46529014594E+01 0.48313235737E+01
 0.46714012897E+01 0.44513914689E+01 0.42963342934E+01 0.42963389670E+01 0.44514102505E+01
 0.46714376538E+01 0.48287548665E+01 0.48298579118E+01 0.46638997173E+01 0.44042456807E+01
 0.41496523630E+01 0.39524099012E+01 0.38452559203E+01 0.38452447762E+01 0.39524018988E+01
 0.41496831201E+01 0.44043053561E+01 0.46639396782E+01 0.48298498702E+01 0.48287166680E+01
 0.38785039413E+01 0.34757780494E+01 0.33176057637E+01 0.34757213024E+01 0.38784467532E+01
 0.43483215869E+01 0.46925943487E+01 0.47947987389E+01 0.46603198764E+01 0.43999589722E+01
 0.41496620543E+01 0.39755608294E+01 0.39133149131E+01 0.39755525087E+01 0.41496831201E+01
 0.44000094935E+01 0.46603442041E+01 0.47947649946E+01 0.46925456730E+01 0.43483224414E+01
 0.25346884988E+01 0.20674066374E+01 0.20673674558E+01 0.25346106254E+01 0.32888602381E+01
 0.40552175411E+01 0.45890795401E+01 0.47757664948E+01 0.46603359836E+01 0.44042860699E+01
 0.41743320158E+01 0.40428480131E+01 0.40428541022E+01 0.41743481793E+01 0.44043053561E+01
 0.46603442041E+01 0.47757498457E+01 0.45890458591E+01 0.40552063672E+01 0.32889057793E+01
 0.90020469371E+00 0.56555365974E+00 0.90021700513E+00 0.17850481339E+01 0.29160436316E+01
 0.39376118643E+01 0.45890561239E+01 0.47947768443E+01 0.46639420963E+01 0.44131899204E+01
 0.42188777719E+01 0.41470445230E+01 0.42188889199E+01 0.44131997767E+01 0.46639396782E+01
 0.47947649946E+01 0.45890458591E+01 0.39376079782E+01 0.29160383825E+01 0.17850353015E+01
 -.58691231308E+00 -.58684491888E+00 0.19526410313E+00 0.14993785293E+01 0.29160851647E+01
 0.40552124556E+01 0.46925528433E+01 0.48298623732E+01 0.46529042589E+01 0.44171749752E+01
 0.42747177742E+01 0.42747233363E+01 0.44171832920E+01 0.46529014594E+01 0.48298498702E+01
 0.46925456730E+01 0.40552063672E+01 0.29160383825E+01 0.14992592051E+01 0.19511830000E+00
 -.14732513812E+01 -.10187800072E+01 0.19548118737E+00 0.17852595206E+01 0.32889377106E+01
 0.43482914259E+01 0.48287460065E+01 0.48313844558E+01 0.46076407773E+01 0.44071603168E+01
 0.43314704333E+01 0.44072016613E+01 0.46076379370E+01 0.48313235737E+01 0.48287166680E+01
 0.43483224414E+01 0.32889057793E+01 0.17850353015E+01 0.19511830000E+00 -.10190595390E+01
 -.18085002895E+00 0.90015999011E+00 0.23027311731E+01 0.36070040819E+01 0.44947052144E+01
 0.48569447202E+01 0.47999291974E+01 0.45621111230E+01 0.43635880242E+01 0.42892455163E+01
 0.43635321351E+01 0.45620815239E+01 0.47999633966E+01 0.48569553434E+01 0.44945958922E+01
 0.36068620044E+01 0.23027899961E+01 0.90049021282E+00 -.18051588365E+00 -.58687441791E+00
 0.90015999011E+00 0.20675417206E+01 0.33178629612E+01 0.42965060744E+01 0.48091443921E+01
 0.48722297379E+01 0.46681696041E+01 0.44324068187E+01 0.42923366680E+01 0.42922887688E+01
 0.44323304845E+01 0.46681642776E+01 0.48722667097E+01 0.48090932115E+01 0.42963289422E+01
 0.33177065977E+01 0.20675706870E+01 0.90033208347E+00 0.19506472786E+00 0.19496587600E+00
 0.23027311731E+01 0.33178629612E+01 0.42143757572E+01 0.47581382129E+01 0.48921491935E+01
 0.47301035901E+01 0.44781332021E+01 0.42882463274E+01 0.42184155836E+01 0.42881843969E+01
 0.44780923066E+01 0.47301266781E+01 0.48921673940E+01 0.47580576028E+01 0.42142062986E+01
 0.33177163555E+01 0.23026875775E+01 0.14990790720E+01 0.11934786271E+01 0.14990598298E+01
 0.36070040819E+01 0.42965060744E+01 0.47581382129E+01 0.48935541640E+01 0.47558218875E+01
 0.45028857770E+01 0.42821295355E+01 0.41564761998E+01 0.41564664874E+01 0.42821067051E+01
 0.45028726346E+01 0.47558369631E+01 0.48935609002E+01 0.47580692654E+01 0.42963616688E+01
 0.36068714698E+01 0.29159001634E+01 0.24839775863E+01 0.24839852586E+01 0.29159566259E+01
 0.44947052144E+01 0.48091443921E+01 0.48921491935E+01 0.47558218875E+01 0.45105337675E+01
 0.42780750721E+01 0.41163447147E+01 0.40585774542E+01 0.41163334758E+01 0.42780501360E+01
 0.45105077432E+01 0.47558128531E+01 0.48921459571E+01 0.48091105559E+01 0.44946254206E+01
 0.40551573255E+01 0.36744105480E+01 0.35242237158E+01 0.36744752683E+01 0.40552543436E+01
 0.48569447202E+01 0.48722297379E+01 0.47301035901E+01 0.45028857770E+01 0.42780750721E+01
 0.41026095145E+01 0.40071328128E+01 0.40071206128E+01 0.41025798729E+01 0.42780377538E+01
 0.45028438679E+01 0.47300707281E+01 0.48722219653E+01 0.48569432948E+01 0.46925713176E+01
 0.44694688856E+01 0.43132686709E+01 0.43133048267E+01 0.44695362091E+01 0.46926069676E+01
 0.47999291974E+01 0.46681696041E+01 0.44781332021E+01 0.42821295355E+01 0.41163447147E+01
 0.40071328128E+01 0.39692218343E+01 0.40071534311E+01 0.41163485117E+01 0.42820880025E+01
 0.44780622042E+01 0.46681100964E+01 0.47999062345E+01 0.48298452561E+01 0.47718497481E+01
 0.46888455611E+01 0.46510804885E+01 0.46888478654E+01 0.47718476772E+01 0.48298445189E+01
 0.45621111230E+01 0.44324068187E+01 0.42882463274E+01 0.41564761998E+01 0.40585774542E+01
 0.40071206128E+01 0.40071534311E+01 0.40586359716E+01 0.41564890386E+01 0.42881902519E+01
 0.44323238169E+01 0.45620517950E+01 0.46528465287E+01 0.46870963801E+01 0.46764928366E+01
 0.46564171062E+01 0.46564116910E+01 0.46764808190E+01 0.46870894171E+01 0.46528657096E+01
 0.43635880242E+01 0.42923366680E+01 0.42184155836E+01 0.41564664874E+01 0.41163334758E+01
 0.41025798729E+01 0.41163485117E+01 0.41564890386E+01 0.42184279309E+01 0.42923210962E+01
 0.43635480471E+01 0.44171427885E+01 0.44445277283E+01 0.44482390857E+01 0.44399593958E+01
 0.44347499768E+01 0.44399558272E+01 0.44482420238E+01 0.44445495784E+01 0.44171833368E+01
 0.42892455163E+01 0.42922887688E+01 0.42881843969E+01 0.42821067051E+01 0.42780501360E+01
 0.42780377538E+01 0.42820880025E+01 0.42881902519E+01 0.42923210962E+01 0.42892701587E+01
 0.42747419858E+01 0.42480665854E+01 0.42139470794E+01 0.41817663334E+01 0.41621394228E+01
 0.41621290013E+01 0.41817539086E+01 0.42139607985E+01 0.42480977182E+01 0.42747529057E+01
 0.43635321351E+01 0.44323304845E+01 0.44780923066E+01 0.45028726346E+01 0.45105077432E+01
 0.45028438679E+01 0.44780622042E+01 0.44323238169E+01 0.43635480471E+01 0.42747419858E+01
 0.41748913409E+01 0.40771489197E+01 0.39955045393E+01 0.39415976235E+01 0.39228010303E+01
 0.39415958589E+01 0.39955051625E+01 0.40771496173E+01 0.41748830970E+01 0.42747227971E+01
 0.45620815239E+01 0.46681642776E+01 0.47301266781E+01 0.47558369631E+01 0.47558128531E+01
 0.47300707281E+01 0.46681100964E+01 0.45620517950E+01 0.44171427885E+01 0.42480665854E+01
 0.40771489197E+01 0.39279176046E+01 0.38191151028E+01 0.37622265655E+01 0.37622288025E+01
 0.38191178949E+01 0.39279136969E+01 0.40771386061E+01 0.42480577373E+01 0.44171471787E+01
 0.47999633966E+01 0.48722667097E+01 0.48921673940E+01 0.48935609002E+01 0.48921459571E+01
 0.48722219653E+01 0.47999062345E+01 0.46528465287E+01 0.44445277283E+01 0.42139470794E+01
 0.39955045393E+01 0.38191151028E+01 0.37058032008E+01 0.36668929611E+01 0.37057975932E+01
 0.38191059182E+01 0.39954961882E+01 0.42139472387E+01 0.44445495784E+01 0.46528941801E+01
 0.48569553434E+01 0.48090932115E+01 0.47580576028E+01 0.47580692654E+01 0.48091105559E+01
 0.48569432948E+01 0.48298452561E+01 0.46870963801E+01 0.44482390857E+01 0.41817663334E+01
 0.39415976235E+01 0.37622265655E+01 0.36668929611E+01 0.36668958202E+01 0.37622233593E+01
 0.39415776675E+01 0.41817502708E+01 0.44482601380E+01 0.46871514307E+01 0.48298948130E+01
 0.44945958922E+01 0.42963289422E+01 0.42142062986E+01 0.42963616688E+01 0.44946254206E+01
 0.46925713176E+01 0.47718497481E+01 0.46764928366E+01 0.44399593958E+01 0.41621394228E+01
 0.39228010303E+01 0.37622288025E+01 0.37057975932E+01 0.37622233593E+01 0.39227887991E+01
 0.41621288691E+01 0.44399683600E+01 0.46765258047E+01 0.47718853274E+01 0.46925768305E+01
 0.36068620044E+01 0.33177065977E+01 0.33177163555E+01 0.36068714698E+01 0.40551573255E+01
 0.44694688856E+01 0.46888455611E+01 0.46564171062E+01 0.44347499768E+01 0.41621290013E+01
 0.39415958589E+01 0.38191178949E+01 0.38191059182E+01 0.39415776675E+01 0.41621288691E+01
 0.44347630924E+01 0.46564310496E+01 0.46888661984E+01 0.44694966697E+01 0.40551716747E+01
 0.23027899961E+01 0.20675706870E+01 0.23026875775E+01 0.29159001634E+01 0.36744105480E+01
 0.43132686709E+01 0.46510804885E+01 0.46564116910E+01 0.44399558272E+01 0.41817539086E+01
 0.39955051625E+01 0.39279136969E+01 0.39954961882E+01 0.41817502708E+01 0.44399683600E+01
 0.46564310496E+01 0.46510909895E+01 0.43132843821E+01 0.36744752683E+01 0.29160194543E+01
 0.90049021282E+00 0.90033208347E+00 0.14990790720E+01 0.24839775863E+01 0.35242237158E+01
 0.43133048267E+01 0.46888478654E+01 0.46764808190E+01 0.44482420238E+01 0.42139607985E+01
 0.40771496173E+01 0.40771386061E+01 0.42139472387E+01 0.44482601380E+01 0.46765258047E+01
 0.46888661984E+01 0.43132843821E+01 0.35242716361E+01 0.24842066121E+01 0.14994038521E+01
 -.18051588365E+00 0.19506472786E+00 0.11934786271E+01 0.24839852586E+01 0.36744752683E+01
 0.44695362091E+01 0.47718476772E+01 0.46870894171E+01 0.44445495784E+01 0.42480977182E+01
 0.41748830970E+01 0.42480577373E+01 0.44445495784E+01 0.46871514307E+01 0.47718853274E+01
 0.44694966697E+01 0.36744752683E+01 0.24842066121E+01 0.11939102225E+01 0.19542761524E+00
 -.58687441791E+00 0.19496587600E+00 0.14990598298E+01 0.29159566259E+01 0.40552543436E+01
 0.46926069676E+01 0.48298445189E+01 0.46528657096E+01 0.44171833368E+01 0.42747529057E+01
 0.42747227971E+01 0.44171471787E+01 0.46528941801E+01 0.48298948130E+01 0.46925768305E+01
 0.40551716747E+01 0.29160194543E+01 0.14994038521E+01 0.19542761524E+00 -.58665711474E+00
 0.15186826223E+01 0.25344812240E+01 0.36065823978E+01 0.44204065386E+01 0.48107451846E+01
 0.48048157853E+01 0.45780998016E+01 0.43434830162E+01 0.42062232788E+01 0.42062512602E+01
 0.43435208400E+01 0.45780887383E+01 0.48047906372E+01 0.48108004336E+01 0.44205768082E+01
 0.36068101657E+01 0.25346867831E+01 0.15188180238E+01 0.90063531464E+00 0.90058848265E+00
 0.25344812240E+01 0.34755153151E+01 0.42961695911E+01 0.47779156914E+01 0.48723031572E+01
 0.46932416034E+01 0.44396994766E+01 0.42513092091E+01 0.41823416314E+01 0.42513450785E+01
 0.44397114302E+01 0.46932133802E+01 0.48722961667E+01 0.47779951735E+01 0.42963508972E+01
 0.34757778149E+01 0.25347677948E+01 0.17852426227E+01 0.14994302562E+01 0.17850452116E+01
 0.36065823978E+01 0.42961695911E+01 0.47580645078E+01 0.48936324011E+01 0.47558581999E+01
 0.45028428456E+01 0.42821003898E+01 0.41565084300E+01 0.41565101752E+01 0.42821124048E+01
 0.45028625965E+01 0.47558612401E+01 0.48936183835E+01 0.47581047682E+01 0.42963550899E+01
 0.36069087311E+01 0.29160911119E+01 0.24842700452E+01 0.24841329070E+01 0.29157653022E+01
 0.44204065386E+01 0.47779156914E+01 0.48936324011E+01 0.47749424285E+01 0.45334908695E+01
 0.42997402131E+01 0.41363109232E+01 0.40778180996E+01 0.41363119607E+01 0.42997590730E+01
 0.45335166383E+01 0.47749376496E+01 0.48936016163E+01 0.47779460768E+01 0.44205886690E+01
 0.39376431341E+01 0.35243865937E+01 0.33620387927E+01 0.35241530382E+01 0.39373466962E+01
 0.48107451846E+01 0.48723031572E+01 0.47558581999E+01 0.45334908695E+01 0.43054786674E+01
 0.41256573198E+01 0.40272645280E+01 0.40272499709E+01 0.41256373924E+01 0.43054886737E+01
 0.45335164543E+01 0.47558508027E+01 0.48722618031E+01 0.48107521448E+01 0.45890893049E+01
 0.43133545887E+01 0.41255416732E+01 0.41254495500E+01 0.43131654398E+01 0.45889615702E+01
 0.48048157853E+01 0.46932416034E+01 0.45028428456E+01 0.42997402131E+01 0.41256573198E+01
 0.40100377209E+01 0.39697014606E+01 0.40099894231E+01 0.41256276394E+01 0.42997584883E+01
 0.45028584682E+01 0.46932089696E+01 0.48047695949E+01 0.47947818897E+01 0.46888542074E+01
 0.45668828526E+01 0.45141061507E+01 0.45668139245E+01 0.46887837276E+01 0.47947749047E+01
 0.45780998016E+01 0.44396994766E+01 0.42821003898E+01 0.41363109232E+01 0.40272645280E+01
 0.39697014606E+01 0.39696835008E+01 0.40272293225E+01 0.41362885156E+01 0.42820977666E+01
 0.44397020001E+01 0.45780959950E+01 0.46638972634E+01 0.46764873981E+01 0.46386081058E+01
 0.45999365414E+01 0.45999410003E+01 0.46386176993E+01 0.46764966591E+01 0.46639051813E+01
 0.43434830162E+01 0.42513092091E+01 0.41565084300E+01 0.40778180996E+01 0.40272499709E+01
 0.40099894231E+01 0.40272293225E+01 0.40777860516E+01 0.41564878887E+01 0.42513196200E+01
 0.43435163083E+01 0.44131399482E+01 0.44482408816E+01 0.44496331923E+01 0.44335325435E+01
 0.44243614008E+01 0.44335627402E+01 0.44496709828E+01 0.44482548732E+01 0.44131183656E+01
 0.42062232788E+01 0.41823416314E+01 0.41565101752E+01 0.41363119607E+01 0.41256373924E+01
 0.41256276394E+01 0.41362885156E+01 0.41564878887E+01 0.41823375857E+01 0.42062462782E+01
 0.42188857511E+01 0.42139560167E+01 0.41929186181E+01 0.41659589892E+01 0.41473509131E+01
 0.41473646054E+01 0.41659817198E+01 0.41929178375E+01 0.42139240845E+01 0.42188451873E+01
 0.42062512602E+01 0.42513450785E+01 0.42821124048E+01 0.42997590730E+01 0.43054886737E+01
 0.42997584883E+01 0.42820977666E+01 0.42513196200E+01 0.42062462782E+01 0.41470936231E+01
 0.40771681441E+01 0.40039277757E+01 0.39384092239E+01 0.38927082857E+01 0.38762917223E+01
 0.38927288901E+01 0.39384118271E+01 0.40038863581E+01 0.40771043248E+01 0.41470544332E+01
 0.43435208400E+01 0.44397114302E+01 0.45028625965E+01 0.45335166383E+01 0.45335164543E+01
 0.45028584682E+01 0.44397020001E+01 0.43435163083E+01 0.42188857511E+01 0.40771681441E+01
 0.39349253521E+01 0.38101359336E+01 0.37182434386E+01 0.36697601558E+01 0.36697630234E+01
 0.37182457587E+01 0.38101255720E+01 0.39348990134E+01 0.40771395792E+01 0.42188727567E+01
 0.45780887383E+01 0.46932133802E+01 0.47558612401E+01 0.47749376496E+01 0.47558508027E+01
 0.46932089696E+01 0.45780959950E+01 0.44131399482E+01 0.42139560167E+01 0.40039277757E+01
 0.38101359336E+01 0.36562803632E+01 0.35584855564E+01 0.35250755988E+01 0.35584692547E+01
 0.36562664144E+01 0.38101411157E+01 0.40039482740E+01 0.42139696131E+01 0.44131362106E+01
 0.48047906372E+01 0.48722961667E+01 0.48936183835E+01 0.48936016163E+01 0.48722618031E+01
 0.48047695949E+01 0.46638972634E+01 0.44482408816E+01 0.41929186181E+01 0.39384092239E+01
 0.37182434386E+01 0.35584855564E+01 0.34750801080E+01 0.34750707595E+01 0.35584715067E+01
 0.37182460960E+01 0.39384245131E+01 0.41929243496E+01 0.44482326651E+01 0.46638946919E+01
 0.48108004336E+01 0.47779951735E+01 0.47581047682E+01 0.47779460768E+01 0.48107521448E+01
 0.47947818897E+01 0.46764873981E+01 0.44496331923E+01 0.41659589892E+01 0.38927082857E+01
 0.36697601558E+01 0.35250755988E+01 0.34750707595E+01 0.35250716412E+01 0.36697605210E+01
 0.38927115210E+01 0.41659487677E+01 0.44496009033E+01 0.46764543083E+01 0.47947867544E+01
 0.44205768082E+01 0.42963508972E+01 0.42963550899E+01 0.44205886690E+01 0.45890893049E+01
 0.46888542074E+01 0.46386081058E+01 0.44335325435E+01 0.41473509131E+01 0.38762917223E+01
 0.36697630234E+01 0.35584692547E+01 0.35584715067E+01 0.36697605210E+01 0.38762721699E+01
 0.41473224220E+01 0.44335106933E+01 0.46385951325E+01 0.46888412865E+01 0.45890735322E+01
 0.36068101657E+01 0.34757778149E+01 0.36069087311E+01 0.39376431341E+01 0.43133545887E+01
 0.45668828526E+01 0.45999365414E+01 0.44243614008E+01 0.41473646054E+01 0.38927288901E+01
 0.37182457587E+01 0.36562664144E+01 0.37182460960E+01 0.38927115210E+01 0.41473224220E+01
 0.44243208681E+01 0.45999326376E+01 0.45669001674E+01 0.43133270671E+01 0.39375441566E+01
 0.25346867831E+01 0.25347677948E+01 0.29160911119E+01 0.35243865937E+01 0.41255416732E+01
 0.45141061507E+01 0.45999410003E+01 0.44335627402E+01 0.41659817198E+01 0.39384118271E+01
 0.38101255720E+01 0.38101411157E+01 0.39384245131E+01 0.41659487677E+01 0.44335106933E+01
 0.45999326376E+01 0.45141359752E+01 0.41255224305E+01 0.35242594096E+01 0.29159183935E+01
 0.15188180238E+01 0.17852426227E+01 0.24842700452E+01 0.33620387927E+01 0.41254495500E+01
 0.45668139245E+01 0.46386176993E+01 0.44496709828E+01 0.41929178375E+01 0.40038863581E+01
 0.39348990134E+01 0.40039482740E+01 0.41929243496E+01 0.44496009033E+01 0.46385951325E+01
 0.45669001674E+01 0.41255224305E+01 0.33619521791E+01 0.24840486917E+01 0.17850580441E+01
 0.90063531464E+00 0.14994302562E+01 0.24841329070E+01 0.35241530382E+01 0.43131654398E+01
 0.46887837276E+01 0.46764966591E+01 0.44482548732E+01 0.42139240845E+01 0.40771043248E+01
 0.40771395792E+01 0.42139696131E+01 0.44482326651E+01 0.46764543083E+01 0.46888412865E+01
 0.43133270671E+01 0.35242594096E+01 0.24840486917E+01 0.14992267204E+01 0.90052816566E+00
 0.90058848265E+00 0.17850452116E+01 0.29157653022E+01 0.39373466962E+01 0.45889615702E+01
 0.47947749047E+01 0.46639051813E+01 0.44131183656E+01 0.42188451873E+01 0.41470544332E+01
 0.42188727567E+01 0.44131362106E+01 0.46638946919E+01 0.47947867544E+01 0.45890735322E+01
 0.39375441566E+01 0.29159183935E+01 0.17850580441E+01 0.90052816566E+00 0.56606732090E+00
 0.31380822280E+01 0.38787177956E+01 0.44946007584E+01 0.48106068935E+01 0.48018689363E+01
 0.45820149569E+01 0.43273097973E+01 0.41438550561E+01 0.40773177651E+01 0.41438632634E+01
 0.43273054543E+01 0.45820206690E+01 0.48019445851E+01 0.48107332156E+01 0.44946178551E+01
 0.38784611928E+01 0.31376079979E+01 0.25345484920E+01 0.23026855401E+01 0.25349339966E+01
 0.38787177956E+01 0.44514296271E+01 0.48089320585E+01 0.48720933070E+01 0.46995627604E+01
 0.44413858495E+01 0.42235870717E+01 0.41007661279E+01 0.41007994641E+01 0.42236248233E+01