       N       E                     dE             d eps       ncg     rms          rms(c)
DAV:   1    -0.388562348560E+01   -0.38856E+01   -0.12838E+03   774   0.289E+02
DAV:   2    -0.510965659937E+01   -0.12240E+01   -0.12138E+01   990   0.267E+01
DAV:   3    -0.511340803205E+01   -0.37514E-02   -0.37511E-02   786   0.142E+00
DAV:   4    -0.511340979685E+01   -0.17648E-05   -0.17649E-05   960   0.283E-02
DAV:   5    -0.511340979754E+01   -0.68711E-09   -0.39936E-09   696   0.259E-04    0.111E+00
DAV:   6    -0.508356093552E+01    0.29849E-01   -0.44585E-03   732   0.427E-01    0.663E-01
DAV:   7    -0.506621714173E+01    0.17344E-01   -0.98064E-03   726   0.636E-01    0.303E-02
DAV:   8    -0.506619006298E+01    0.27079E-04   -0.24993E-05   648   0.439E-02
   1 F= -.50661901E+01 E0= -.50643254E+01  d E =-.372939E-02
