fcc Si                                  
   4.60000000000000     
     0.445088    0.445088    0.000000
     0.000000    0.445088    0.445088
     0.445088    0.000000    0.445088
   Si
     1
Direct
  0.000000  0.000000  0.000000
 
   24   24   24
 -.29155414135E+01 -.21866990279E+01 -.24716877376E+00 0.22670994524E+01 0.45946810716E+01
 0.61438449816E+01 0.66862632749E+01 0.63778121937E+01 0.56243211292E+01 0.48551249741E+01
 0.42557031445E+01 0.38814710297E+01 0.37549388516E+01 0.38814710297E+01 0.42557031445E+01
 0.48551249741E+01 0.56243211292E+01 0.63778121937E+01 0.66862632749E+01 0.61438449816E+01
 0.45946810716E+01 0.22670994524E+01 -.24716877376E+00 -.21866990279E+01 -.21866990279E+01
 -.85435284892E+00 0.13593376814E+01 0.37433810185E+01 0.56153395711E+01 0.65715271508E+01
 0.65930342150E+01 0.59817505027E+01 0.51795505334E+01 0.44915736265E+01 0.40055498756E+01
 0.37566681560E+01 0.37566605258E+01 0.40055316074E+01 0.44915575356E+01 0.51795531822E+01
 0.59817752005E+01 0.65930656424E+01 0.65715446489E+01 0.56153389499E+01 0.37433742085E+01
 0.13593353653E+01 -.85434869167E+00 -.21866960762E+01 -.24716877376E+00 0.13593376814E+01
 0.34133133338E+01 0.52599201455E+01 0.64017041212E+01 0.66665810367E+01 0.62202986270E+01
 0.54405778482E+01 0.46942895428E+01 0.41185356254E+01 0.37610828618E+01 0.36405370785E+01
 0.37610556630E+01 0.41184953318E+01 0.46942621404E+01 0.54405870775E+01 0.62203425780E+01
 0.66666296150E+01 0.64017281470E+01 0.52599250735E+01 0.34133308533E+01 0.13593807215E+01
 -.24712813148E+00 -.85434869167E+00 0.22670994524E+01 0.37433810185E+01 0.52599201455E+01
 0.63248849594E+01 0.66744947885E+01 0.63471015775E+01 0.56209334131E+01 0.48487858290E+01
 0.42109908904E+01 0.37663741410E+01 0.35403706842E+01 0.35403549316E+01 0.37663311076E+01
 0.42109382614E+01 0.48487536385E+01 0.56209452167E+01 0.63471492061E+01 0.66745471047E+01
 0.63249264176E+01 0.52599729641E+01 0.37434699090E+01 0.22671990054E+01 0.13593807215E+01
 0.13593353653E+01 0.45946810716E+01 0.56153395711E+01 0.64017041212E+01 0.66744947885E+01
 0.63854540160E+01 0.57113901365E+01 0.49450039720E+01 0.42759245417E+01 0.37708059547E+01
 0.34611890421E+01 0.33574162762E+01 0.34611730516E+01 0.37707726881E+01 0.42758851704E+01
 0.49449819707E+01 0.57114009885E+01 0.63854921817E+01 0.66745498896E+01 0.64017840020E+01
 0.56154561331E+01 0.45948160924E+01 0.37434699090E+01 0.34133308533E+01 0.37433742085E+01
 0.61438449816E+01 0.65715271508E+01 0.66665810367E+01 0.63471015775E+01 0.57113901365E+01
 0.49776107358E+01 0.43092418590E+01 0.37734955104E+01 0.34064037159E+01 0.32215721561E+01
 0.32215804545E+01 0.34064205642E+01 0.37735049811E+01 0.43092389034E+01 0.49776038292E+01
 0.57113923811E+01 0.63471244171E+01 0.66666357970E+01 0.65716247170E+01 0.61439746449E+01
 0.56154561331E+01 0.52599729641E+01 0.52599250735E+01 0.56153389499E+01 0.66862632749E+01
 0.65930342150E+01 0.62202986270E+01 0.56209334131E+01 0.49450039720E+01 0.43092418590E+01
 0.37743585393E+01 0.33783567959E+01 0.31382578870E+01 0.30581998277E+01 0.31383009706E+01
 0.33784182470E+01 0.37744078763E+01 0.43092632521E+01 0.49450033598E+01 0.56209271578E+01
 0.62203070158E+01 0.65930698324E+01 0.66863298874E+01 0.65716247170E+01 0.64017840020E+01
 0.63249264176E+01 0.64017281470E+01 0.65715446489E+01 0.63778121937E+01 0.59817505027E+01
 0.54405778482E+01 0.48487858290E+01 0.42759245417E+01 0.37734955104E+01 0.33783567959E+01
 0.31102071091E+01 0.29757555150E+01 0.29757768565E+01 0.31102596629E+01 0.33784153613E+01
 0.37735398674E+01 0.42759476930E+01 0.48487933233E+01 0.54405757193E+01 0.59817469442E+01
 0.63778129040E+01 0.65930698324E+01 0.66666357970E+01 0.66745498896E+01 0.66745471047E+01
 0.66666296150E+01 0.65930656424E+01 0.56243211292E+01 0.51795505334E+01 0.46942895428E+01
 0.42109908904E+01 0.37708059547E+01 0.34064037159E+01 0.31382578870E+01 0.29757555150E+01
 0.29215005176E+01 0.29757518971E+01 0.31382555890E+01 0.34064085335E+01 0.37708216596E+01
 0.42110141074E+01 0.46943128952E+01 0.51795625996E+01 0.56243114318E+01 0.59817469442E+01
 0.62203070158E+01 0.63471244171E+01 0.63854921817E+01 0.63471492061E+01 0.62203425780E+01
 0.59817752005E+01 0.48551249741E+01 0.44915736265E+01 0.41185356254E+01 0.37663741410E+01
 0.34611890421E+01 0.32215721561E+01 0.30581998277E+01 0.29757768565E+01 0.29757518971E+01
 0.30581386150E+01 0.32215058241E+01 0.34611452690E+01 0.37663652247E+01 0.41185563136E+01
 0.44916075910E+01 0.48551543528E+01 0.51795625996E+01 0.54405757193E+01 0.56209271578E+01
 0.57113923811E+01 0.57114009885E+01 0.56209452167E+01 0.54405870775E+01 0.51795531822E+01
 0.42557031445E+01 0.40055498756E+01 0.37610828618E+01 0.35403706842E+01 0.33574162762E+01
 0.32215804545E+01 0.31383009706E+01 0.31102596629E+01 0.31382555890E+01 0.32215058241E+01
 0.33573378176E+01 0.35403111374E+01 0.37610563829E+01 0.40055586629E+01 0.42557388107E+01
 0.44916075910E+01 0.46943128952E+01 0.48487933233E+01 0.49450033598E+01 0.49776038292E+01
 0.49449819707E+01 0.48487536385E+01 0.46942621404E+01 0.44915575356E+01 0.38814710297E+01
 0.37566681560E+01 0.36405370785E+01 0.35403549316E+01 0.34611730516E+01 0.34064205642E+01
 0.33784182470E+01 0.33784153613E+01 0.34064085335E+01 0.34611452690E+01 0.35403111374E+01
 0.36404869031E+01 0.37566287593E+01 0.38814603976E+01 0.40055586629E+01 0.41185563136E+01
 0.42110141074E+01 0.42759476930E+01 0.43092632521E+01 0.43092389034E+01 0.42758851704E+01
 0.42109382614E+01 0.41184953318E+01 0.40055316074E+01 0.37549388516E+01 0.37566605258E+01
 0.37610556630E+01 0.37663311076E+01 0.37707726881E+01 0.37735049811E+01 0.37744078763E+01
 0.37735398674E+01 0.37708216596E+01 0.37663652247E+01 0.37610563829E+01 0.37566287593E+01
 0.37548935402E+01 0.37566287593E+01 0.37610563829E+01 0.37663652247E+01 0.37708216596E+01
 0.37735398674E+01 0.37744078763E+01 0.37735049811E+01 0.37707726881E+01 0.37663311076E+01
 0.37610556630E+01 0.37566605258E+01 0.38814710297E+01 0.40055316074E+01 0.41184953318E+01
 0.42109382614E+01 0.42758851704E+01 0.43092389034E+01 0.43092632521E+01 0.42759476930E+01
 0.42110141074E+01 0.41185563136E+01 0.40055586629E+01 0.38814603976E+01 0.37566287593E+01
 0.36404869031E+01 0.35403111374E+01 0.34611452690E+01 0.34064085335E+01 0.33784153613E+01
 0.33784182470E+01 0.34064205642E+01 0.34611730516E+01 0.35403549316E+01 0.36405370785E+01
 0.37566681560E+01 0.42557031445E+01 0.44915575356E+01 0.46942621404E+01 0.48487536385E+01
 0.49449819707E+01 0.49776038292E+01 0.49450033598E+01 0.48487933233E+01 0.46943128952E+01
 0.44916075910E+01 0.42557388107E+01 0.40055586629E+01 0.37610563829E+01 0.35403111374E+01
 0.33573378176E+01 0.32215058241E+01 0.31382555890E+01 0.31102596629E+01 0.31383009706E+01
 0.32215804545E+01 0.33574162762E+01 0.35403706842E+01 0.37610828618E+01 0.40055498756E+01
 0.48551249741E+01 0.51795531822E+01 0.54405870775E+01 0.56209452167E+01 0.57114009885E+01
 0.57113923811E+01 0.56209271578E+01 0.54405757193E+01 0.51795625996E+01 0.48551543528E+01
 0.44916075910E+01 0.41185563136E+01 0.37663652247E+01 0.34611452690E+01 0.32215058241E+01
 0.30581386150E+01 0.29757518971E+01 0.29757768565E+01 0.30581998277E+01 0.32215721561E+01
 0.34611890421E+01 0.37663741410E+01 0.41185356254E+01 0.44915736265E+01 0.56243211292E+01
 0.59817752005E+01 0.62203425780E+01 0.63471492061E+01 0.63854921817E+01 0.63471244171E+01
 0.62203070158E+01 0.59817469442E+01 0.56243114318E+01 0.51795625996E+01 0.46943128952E+01
 0.42110141074E+01 0.37708216596E+01 0.34064085335E+01 0.31382555890E+01 0.29757518971E+01
 0.29215005176E+01 0.29757555150E+01 0.31382578870E+01 0.34064037159E+01 0.37708059547E+01
 0.42109908904E+01 0.46942895428E+01 0.51795505334E+01 0.63778121937E+01 0.65930656424E+01
 0.66666296150E+01 0.66745471047E+01 0.66745498896E+01 0.66666357970E+01 0.65930698324E+01
 0.63778129040E+01 0.59817469442E+01 0.54405757193E+01 0.48487933233E+01 0.42759476930E+01
 0.37735398674E+01 0.33784153613E+01 0.31102596629E+01 0.29757768565E+01 0.29757555150E+01
 0.31102071091E+01 0.33783567959E+01 0.37734955104E+01 0.42759245417E+01 0.48487858290E+01
 0.54405778482E+01 0.59817505027E+01 0.66862632749E+01 0.65715446489E+01 0.64017281470E+01
 0.63249264176E+01 0.64017840020E+01 0.65716247170E+01 0.66863298874E+01 0.65930698324E+01
 0.62203070158E+01 0.56209271578E+01 0.49450033598E+01 0.43092632521E+01 0.37744078763E+01
 0.33784182470E+01 0.31383009706E+01 0.30581998277E+01 0.31382578870E+01 0.33783567959E+01
 0.37743585393E+01 0.43092418590E+01 0.49450039720E+01 0.56209334131E+01 0.62202986270E+01
 0.65930342150E+01 0.61438449816E+01 0.56153389499E+01 0.52599250735E+01 0.52599729641E+01
 0.56154561331E+01 0.61439746449E+01 0.65716247170E+01 0.66666357970E+01 0.63471244171E+01
 0.57113923811E+01 0.49776038292E+01 0.43092389034E+01 0.37735049811E+01 0.34064205642E+01
 0.32215804545E+01 0.32215721561E+01 0.34064037159E+01 0.37734955104E+01 0.43092418590E+01
 0.49776107358E+01 0.57113901365E+01 0.63471015775E+01 0.66665810367E+01 0.65715271508E+01
 0.45946810716E+01 0.37433742085E+01 0.34133308533E+01 0.37434699090E+01 0.45948160924E+01
 0.56154561331E+01 0.64017840020E+01 0.66745498896E+01 0.63854921817E+01 0.57114009885E+01
 0.49449819707E+01 0.42758851704E+01 0.37707726881E+01 0.34611730516E+01 0.33574162762E+01
 0.34611890421E+01 0.37708059547E+01 0.42759245417E+01 0.49450039720E+01 0.57113901365E+01
 0.63854540160E+01 0.66744947885E+01 0.64017041212E+01 0.56153395711E+01 0.22670994524E+01
 0.13593353653E+01 0.13593807215E+01 0.22671990054E+01 0.37434699090E+01 0.52599729641E+01
 0.63249264176E+01 0.66745471047E+01 0.63471492061E+01 0.56209452167E+01 0.48487536385E+01
 0.42109382614E+01 0.37663311076E+01 0.35403549316E+01 0.35403706842E+01 0.37663741410E+01
 0.42109908904E+01 0.48487858290E+01 0.56209334131E+01 0.63471015775E+01 0.66744947885E+01
 0.63248849594E+01 0.52599201455E+01 0.37433810185E+01 -.24716877376E+00 -.85434869167E+00
 -.24712813148E+00 0.13593807215E+01 0.34133308533E+01 0.52599250735E+01 0.64017281470E+01
 0.66666296150E+01 0.62203425780E+01 0.54405870775E+01 0.46942621404E+01 0.41184953318E+01
 0.37610556630E+01 0.36405370785E+01 0.37610828618E+01 0.41185356254E+01 0.46942895428E+01
 0.54405778482E+01 0.62202986270E+01 0.66665810367E+01 0.64017041212E+01 0.52599201455E+01
 0.34133133338E+01 0.13593376814E+01 -.21866990279E+01 -.21866960762E+01 -.85434869167E+00
 0.13593353653E+01 0.37433742085E+01 0.56153389499E+01 0.65715446489E+01 0.65930656424E+01
 0.59817752005E+01 0.51795531822E+01 0.44915575356E+01 0.40055316074E+01 0.37566605258E+01
 0.37566681560E+01 0.40055498756E+01 0.44915736265E+01 0.51795505334E+01 0.59817505027E+01
 0.65930342150E+01 0.65715271508E+01 0.56153395711E+01 0.37433810185E+01 0.13593376814E+01
 -.85435284892E+00 -.21867597520E+01 -.85429563564E+00 0.13594525859E+01 0.37434630235E+01
 0.56153560231E+01 0.65715149164E+01 0.65930358231E+01 0.59817656354E+01 0.51795564302E+01
 0.44915670158E+01 0.40055461846E+01 0.37566718568E+01 0.37566615761E+01 0.40055289546E+01
 0.44915627280E+01 0.51795665958E+01 0.59817805907E+01 0.65930591698E+01 0.65715498717E+01
 0.56153718640E+01 0.37434017599E+01 0.13592955899E+01 -.85447326049E+00 -.21868384255E+01
 -.85429563564E+00 0.86152594495E+00 0.30655125485E+01 0.50673776386E+01 0.63390220710E+01
 0.66907350866E+01 0.62858912958E+01 0.55119812799E+01 0.47571014911E+01 0.41729754075E+01
 0.38097128240E+01 0.36871100444E+01 0.38096867929E+01 0.41729452485E+01 0.47570879603E+01
 0.55119907782E+01 0.62859239988E+01 0.66907900877E+01 0.63390730678E+01 0.50673640940E+01
 0.30653824202E+01 0.86131351768E+00 -.85446199530E+00 -.15016375495E+01 0.13594525859E+01
 0.30655125485E+01 0.48495449365E+01 0.61595480957E+01 0.66889686413E+01 0.64601568774E+01
 0.57606545870E+01 0.49741953648E+01 0.43185952053E+01 0.38597676825E+01 0.36260358620E+01
 0.36260150158E+01 0.38597202259E+01 0.43185505165E+01 0.49741716155E+01 0.57606586854E+01
 0.64601940524E+01 0.66890321720E+01 0.61595954441E+01 0.48495148113E+01 0.30653876310E+01
 0.13592996357E+01 0.31842839232E+00 0.31849777395E+00 0.37434630235E+01 0.50673776386E+01
 0.61595480957E+01 0.66759426832E+01 0.65337184935E+01 0.59096643050E+01 0.51271451928E+01
 0.44307590996E+01 0.39017412852E+01 0.35763089713E+01 0.34670396977E+01 0.35762692826E+01
 0.39016895223E+01 0.44307175048E+01 0.51271164642E+01 0.59096536924E+01 0.65337420133E+01
 0.66760021749E+01 0.61596069124E+01 0.50673894989E+01 0.37434238116E+01 0.26680902999E+01
 0.22554047548E+01 0.26681346891E+01 0.56153560231E+01 0.63390220710E+01 0.66889686413E+01
 0.65337184935E+01 0.59586316163E+01 0.52059674693E+01 0.45011712156E+01 0.39316080456E+01
 0.35395263126E+01 0.33416229435E+01 0.33416147238E+01 0.35395088368E+01 0.39315898777E+01
 0.45011493828E+01 0.52059360837E+01 0.59586057879E+01 0.65337282315E+01 0.66890280323E+01
 0.63391080834E+01 0.56154273845E+01 0.48242462135E+01 0.43141264086E+01 0.43141165858E+01
 0.48242087522E+01 0.65715149164E+01 0.66907350866E+01 0.64601568774E+01 0.59096643050E+01
 0.52059674693E+01 0.45251364511E+01 0.39470148069E+01 0.35168339051E+01 0.32553474411E+01
 0.31680601374E+01 0.32553727990E+01 0.35168716800E+01 0.39470431600E+01 0.45251368429E+01
 0.52059390433E+01 0.59096322586E+01 0.64601567426E+01 0.66907850585E+01 0.65716015866E+01
 0.62285545302E+01 0.58831081521E+01 0.57403536756E+01 0.58830562669E+01 0.62284681031E+01
 0.65930358231E+01 0.62858912958E+01 0.57606545870E+01 0.51271451928E+01 0.45011712156E+01
 0.39470148069E+01 0.35091444714E+01 0.32114522278E+01 0.30621283453E+01 0.30621526118E+01
 0.32115135725E+01 0.35092164980E+01 0.39470670229E+01 0.45011871854E+01 0.51271278676E+01
 0.57606246117E+01 0.62858766226E+01 0.65930528457E+01 0.66721956221E+01 0.66100667451E+01
 0.65337391886E+01 0.65337169942E+01 0.66100157468E+01 0.66721490706E+01 0.59817656354E+01
 0.55119812799E+01 0.49741953648E+01 0.44307590996E+01 0.39316080456E+01 0.35168339051E+01
 0.32114522278E+01 0.30265821610E+01 0.29649356064E+01 0.30266085169E+01 0.32114967877E+01
 0.35168838345E+01 0.39316503501E+01 0.44307826297E+01 0.49741963066E+01 0.55119610374E+01
 0.59817387650E+01 0.63142177720E+01 0.64969223136E+01 0.65700603166E+01 0.65865809560E+01
 0.65700587759E+01 0.64969282213E+01 0.63142363690E+01 0.51795564302E+01 0.47571014911E+01
 0.43185952053E+01 0.39017412852E+01 0.35395263126E+01 0.32553474411E+01 0.30621283453E+01
 0.29649356064E+01 0.29649263668E+01 0.30621059998E+01 0.32553260856E+01 0.35395208735E+01
 0.39017583836E+01 0.43186252908E+01 0.47571273455E+01 0.51795613943E+01 0.55505158274E+01
 0.58371617920E+01 0.60203288467E+01 0.61061250420E+01 0.61061379707E+01 0.60203609918E+01
 0.58371973223E+01 0.55505372341E+01 0.44915670158E+01 0.41729754075E+01 0.38597676825E+01
 0.35763089713E+01 0.33416229435E+01 0.31680601374E+01 0.30621526118E+01 0.30266085169E+01
 0.30621059998E+01 0.31679851517E+01 0.33415491003E+01 0.35762642079E+01 0.38597658776E+01
 0.41730076046E+01 0.44916095795E+01 0.47893679780E+01 0.50426218019E+01 0.52336174931E+01
 0.53515457029E+01 0.53912992804E+01 0.53515533714E+01 0.52336230836E+01 0.50426118798E+01
 0.47893366829E+01 0.40055461846E+01 0.38097128240E+01 0.36260358620E+01 0.34670396977E+01
 0.33416147238E+01 0.32553727990E+01 0.32115135725E+01 0.32114967877E+01 0.32553260856E+01
 0.33415491003E+01 0.34669721327E+01 0.36259840916E+01 0.38096913086E+01 0.40055597552E+01
 0.41983060276E+01 0.43720985326E+01 0.45132005122E+01 0.46117922773E+01 0.46622492463E+01
 0.46622344045E+01 0.46117514730E+01 0.45131439591E+01 0.43720408650E+01 0.41982637647E+01
 0.37566718568E+01 0.36871100444E+01 0.36260150158E+01 0.35762692826E+01 0.35395088368E+01
 0.35168716800E+01 0.35092164980E+01 0.35168838345E+01 0.35395208735E+01 0.35762642079E+01
 0.36259840916E+01 0.36870608840E+01 0.37566284134E+01 0.38299291794E+01 0.39005870702E+01
 0.39619351319E+01 0.40086233346E+01 0.40374691421E+01 0.40471652555E+01 0.40374279484E+01
 0.40085571699E+01 0.39618720324E+01 0.39005552238E+01 0.38299402722E+01 0.37566615761E+01
 0.38096867929E+01 0.38597202259E+01 0.39016895223E+01 0.39315898777E+01 0.39470431600E+01
 0.39470670229E+01 0.39316503501E+01 0.39017583836E+01 0.38597658776E+01 0.38096913086E+01
 0.37566284134E+01 0.37054681275E+01 0.36597221684E+01 0.36212623458E+01 0.35910157260E+01
 0.35698531732E+01 0.35588536771E+01 0.35588428599E+01 0.35698291808E+01 0.35909989078E+01
 0.36212708033E+01 0.36597586908E+01 0.37055168282E+01 0.40055289546E+01 0.41729452485E+01
 0.43185505165E+01 0.44307175048E+01 0.45011493828E+01 0.45251368429E+01 0.45011871854E+01
 0.44307826297E+01 0.43186252908E+01 0.41730076046E+01 0.40055597552E+01 0.38299291794E+01
 0.36597221684E+01 0.35066262563E+01 0.33795097696E+01 0.32845752994E+01 0.32259636148E+01
 0.32061521550E+01 0.32259855723E+01 0.32846195200E+01 0.33795711172E+01 0.35066899647E+01
 0.36597679623E+01 0.38299390844E+01 0.44915627280E+01 0.47570879603E+01 0.49741716155E+01
 0.51271164642E+01 0.52059360837E+01 0.52059390433E+01 0.51271278676E+01 0.49741963066E+01
 0.47571273455E+01 0.44916095795E+01 0.41983060276E+01 0.39005870702E+01 0.36212623458E+01
 0.33795097696E+01 0.31891612546E+01 0.30587325816E+01 0.29926483358E+01 0.29926749246E+01
 0.30588018500E+01 0.31892456614E+01 0.33795782265E+01 0.36212932541E+01 0.39005763379E+01
 0.41982674029E+01 0.51795665958E+01 0.55119907782E+01 0.57606586854E+01 0.59096536924E+01
 0.59586057879E+01 0.59096322586E+01 0.57606246117E+01 0.55119610374E+01 0.51795613943E+01
 0.47893679780E+01 0.43720985326E+01 0.39619351319E+01 0.35910157260E+01 0.32845752994E+01
 0.30587325816E+01 0.29214584215E+01 0.28755379557E+01 0.29214959309E+01 0.30587854044E+01
 0.32846133413E+01 0.35910192773E+01 0.39619060657E+01 0.43720592391E+01 0.47893434093E+01
 0.59817805907E+01 0.62859239988E+01 0.64601940524E+01 0.65337420133E+01 0.65337282315E+01
 0.64601567426E+01 0.62858766226E+01 0.59817387650E+01 0.55505158274E+01 0.50426218019E+01
 0.45132005122E+01 0.40086233346E+01 0.35698531732E+01 0.32259636148E+01 0.29926483358E+01
 0.28755379557E+01 0.28755351483E+01 0.29926372548E+01 0.32259414079E+01 0.35698198638E+01
 0.40085870717E+01 0.45131736017E+01 0.50426157138E+01 0.55505377407E+01 0.65930591698E+01
 0.66907900877E+01 0.66890321720E+01 0.66760021749E+01 0.66890280323E+01 0.66907850585E+01
 0.65930528457E+01 0.63142177720E+01 0.58371617920E+01 0.52336174931E+01 0.46117922773E+01
 0.40374691421E+01 0.35588536771E+01 0.32061521550E+01 0.29926749246E+01 0.29214959309E+01
 0.29926372548E+01 0.32060896078E+01 0.35587887325E+01 0.40374267230E+01 0.46117836671E+01
 0.52336352566E+01 0.58371851664E+01 0.63142310150E+01 0.65715498717E+01 0.63390730678E+01
 0.61595954441E+01 0.61596069124E+01 0.63391080834E+01 0.65716015866E+01 0.66721956221E+01
 0.64969223136E+01 0.60203288467E+01 0.53515457029E+01 0.46622492463E+01 0.40471652555E+01
 0.35588428599E+01 0.32259855723E+01 0.30588018500E+01 0.30587854044E+01 0.32259414079E+01
 0.35587887325E+01 0.40471300452E+01 0.46622516391E+01 0.53515751056E+01 0.60203494242E+01
 0.64969076569E+01 0.66721504287E+01 0.56153718640E+01 0.50673640940E+01 0.48495148113E+01
 0.50673894989E+01 0.56154273845E+01 0.62285545302E+01 0.66100667451E+01 0.65700603166E+01
 0.61061250420E+01 0.53912992804E+01 0.46622344045E+01 0.40374279484E+01 0.35698291808E+01
 0.32846195200E+01 0.31892456614E+01 0.32846133413E+01 0.35698198638E+01 0.40374267230E+01
 0.46622516391E+01 0.53913269833E+01 0.61061333378E+01 0.65700260015E+01 0.66099953734E+01
 0.62284767271E+01 0.37434017599E+01 0.30653824202E+01 0.30653876310E+01 0.37434238116E+01
 0.48242462135E+01 0.58831081521E+01 0.65337391886E+01 0.65865809560E+01 0.61061379707E+01
 0.53515533714E+01 0.46117514730E+01 0.40085571699E+01 0.35909989078E+01 0.33795711172E+01
 0.33795782265E+01 0.35910192773E+01 0.40085870717E+01 0.46117836671E+01 0.53515751056E+01
 0.61061333378E+01 0.65865410255E+01 0.65336718551E+01 0.58830382146E+01 0.48241976528E+01
 0.13592955899E+01 0.86131351768E+00 0.13592996357E+01 0.26680902999E+01 0.43141264086E+01
 0.57403536756E+01 0.65337169942E+01 0.65700587759E+01 0.60203609918E+01 0.52336230836E+01
 0.45131439591E+01 0.39618720324E+01 0.36212708033E+01 0.35066899647E+01 0.36212932541E+01
 0.39619060657E+01 0.45131736017E+01 0.52336352566E+01 0.60203494242E+01 0.65700260015E+01
 0.65336718551E+01 0.57403103030E+01 0.43140953227E+01 0.26680750421E+01 -.85447326049E+00
 -.85446199530E+00 0.31842839232E+00 0.22554047548E+01 0.43141165858E+01 0.58830562669E+01
 0.66100157468E+01 0.64969282213E+01 0.58371973223E+01 0.50426118798E+01 0.43720408650E+01
 0.39005552238E+01 0.36597586908E+01 0.36597679623E+01 0.39005763379E+01 0.43720592391E+01
 0.50426157138E+01 0.58371851664E+01 0.64969076569E+01 0.66099953734E+01 0.58830382146E+01
 0.43140953227E+01 0.22553767290E+01 0.31840157941E+00 -.21868384255E+01 -.15016375495E+01
 0.31849777395E+00 0.26681346891E+01 0.48242087522E+01 0.62284681031E+01 0.66721490706E+01
 0.63142363690E+01 0.55505372341E+01 0.47893366829E+01 0.41982637647E+01 0.38299402722E+01
 0.37055168282E+01 0.38299390844E+01 0.41982674029E+01 0.47893434093E+01 0.55505377407E+01
 0.63142310150E+01 0.66721504287E+01 0.62284767271E+01 0.48241976528E+01 0.26680750421E+01
 0.31840157941E+00 -.15017129860E+01 -.24725947815E+00 0.13593193676E+01 0.34133590500E+01
 0.52599788534E+01 0.64017370306E+01 0.66665907855E+01 0.62203066508E+01 0.54405906123E+01
 0.46942978886E+01 0.41185359844E+01 0.37610823723E+01 0.36405396607E+01 0.37610572745E+01
 0.41184951599E+01 0.46942665087E+01 0.54405975942E+01 0.62203509239E+01 0.66666320607E+01
 0.64017371584E+01 0.52599534184E+01 0.34133637628E+01 0.13593765133E+01 -.24719820289E+00
 -.85446149044E+00 0.13593193676E+01 0.30654664585E+01 0.48495882016E+01 0.61596121748E+01
 0.66889970776E+01 0.64601551727E+01 0.57606573234E+01 0.49742121434E+01 0.43186086915E+01
 0.38597688447E+01 0.36260347936E+01 0.36260187980E+01 0.38597224061E+01 0.43185479719E+01
 0.49741741852E+01 0.57606719193E+01 0.64602058243E+01 0.66890318075E+01 0.61595995386E+01
 0.48495532274E+01 0.30654554626E+01 0.13593381379E+01 0.31837546289E+00 0.31836167872E+00
 0.34133590500E+01 0.48495882016E+01 0.60556729223E+01 0.66638963558E+01 0.65786251451E+01
 0.59762628534E+01 0.51900792260E+01 0.44844852581E+01 0.39472342488E+01 0.36162993366E+01
 0.35051184281E+01 0.36162615840E+01 0.39471671101E+01 0.44844138178E+01 0.51900364499E+01
 0.59762631675E+01 0.65786473205E+01 0.66639070862E+01 0.60556597762E+01 0.48495701180E+01
 0.34133555416E+01 0.22553292048E+01 0.18121513584E+01 0.22553237996E+01 0.52599788534E+01
 0.61596121748E+01 0.66638963558E+01 0.66124234886E+01 0.60821049438E+01 0.53259445350E+01
 0.46027478353E+01 0.40155496174E+01 0.36102184662E+01 0.34053283643E+01 0.34053146986E+01
 0.36101799330E+01 0.40154930152E+01 0.46026840911E+01 0.53258881713E+01 0.60820686931E+01
 0.66124084626E+01 0.66638957554E+01 0.61596194068E+01 0.52599924330E+01 0.43140909417E+01
 0.37132448933E+01 0.37132371562E+01 0.43140743280E+01 0.64017370306E+01 0.66889970776E+01
 0.65786251451E+01 0.60821049438E+01 0.53722825752E+01 0.46641878550E+01 0.40588097304E+01
 0.36066020289E+01 0.33311580247E+01 0.32391253775E+01 0.33311684711E+01 0.36066068374E+01
 0.40587885419E+01 0.46641338973E+01 0.53722099945E+01 0.60820425059E+01 0.65785934934E+01
 0.66889991223E+01 0.64017589887E+01 0.58830772158E+01 0.54043346043E+01 0.52118417713E+01
 0.54043209056E+01 0.58830537816E+01 0.66665907855E+01 0.64601551727E+01 0.59762628534E+01
 0.53259445350E+01 0.46641878550E+01 0.40735965341E+01 0.36048605823E+01 0.32854899990E+01
 0.31251536135E+01 0.31251786906E+01 0.32855477539E+01 0.36049125387E+01 0.40736082434E+01
 0.46641505781E+01 0.53258762656E+01 0.59761974262E+01 0.64601174506E+01 0.66665814184E+01
 0.66100213281E+01 0.64189432364E+01 0.62642045365E+01 0.62642044089E+01 0.64189401733E+01
 0.66100169030E+01 0.62203066508E+01 0.57606573234E+01 0.51900792260E+01 0.46027478353E+01
 0.40588097304E+01 0.36048605823E+01 0.32700685110E+01 0.30673501817E+01 0.29997726348E+01
 0.30673958415E+01 0.32701416983E+01 0.36049296615E+01 0.40588426650E+01 0.46027323838E+01
 0.51900292280E+01 0.57605993923E+01 0.62202611410E+01 0.64968783309E+01 0.66013795971E+01
 0.66076682197E+01 0.65980493090E+01 0.66076829679E+01 0.66014044287E+01 0.64969117514E+01
 0.54405906123E+01 0.49742121434E+01 0.44844852581E+01 0.40155496174E+01 0.36066020289E+01
 0.32854899990E+01 0.30673501817E+01 0.29577712418E+01 0.29577775038E+01 0.30673723260E+01
 0.32855288270E+01 0.36066456356E+01 0.40155777331E+01 0.44844859956E+01 0.49741905078E+01
 0.54405549983E+01 0.58371364403E+01 0.61180957738E+01 0.62789498304E+01 0.63465409078E+01
 0.63465538232E+01 0.62789836560E+01 0.61181374509E+01 0.58371779028E+01 0.46942978886E+01
 0.43186086915E+01 0.39472342488E+01 0.36102184662E+01 0.33311580247E+01 0.31251536135E+01
 0.29997726348E+01 0.29577775038E+01 0.29997462296E+01 0.31251161829E+01 0.33311299334E+01
 0.36102116812E+01 0.39472469786E+01 0.43186279792E+01 0.46943118643E+01 0.50426147025E+01
 0.53359104357E+01 0.55539154411E+01 0.56842303101E+01 0.57269317608E+01 0.56842447214E+01
 0.55539350133E+01 0.53359236723E+01 0.50426135146E+01 0.41185359844E+01 0.38597688447E+01
 0.36162993366E+01 0.34053283643E+01 0.32391253775E+01 0.31251786906E+01 0.30673958415E+01
 0.30673723260E+01 0.31251161829E+01 0.32390459538E+01 0.34052594651E+01 0.36162612677E+01
 0.38597667127E+01 0.41185600127E+01 0.43721008545E+01 0.45996354730E+01 0.47835800474E+01
 0.49116689821E+01 0.49770799020E+01 0.49770696977E+01 0.49116411911E+01 0.47835420094E+01
 0.45995947514E+01 0.43720640249E+01 0.37610823723E+01 0.36260347936E+01 0.35051184281E+01
 0.34053146986E+01 0.33311684711E+01 0.32855477539E+01 0.32701416983E+01 0.32855288270E+01
 0.33311299334E+01 0.34052594651E+01 0.35050568226E+01 0.36259819648E+01 0.37610550210E+01
 0.39005881193E+01 0.40331017493E+01 0.41473143072E+01 0.42342194823E+01 0.42881260702E+01
 0.43063214306E+01 0.42880796582E+01 0.42341464681E+01 0.41472424089E+01 0.40330550974E+01
 0.39005789076E+01 0.36405396607E+01 0.36260187980E+01 0.36162615840E+01 0.36101799330E+01
 0.36066068374E+01 0.36049125387E+01 0.36049296615E+01 0.36066456356E+01 0.36102116812E+01
 0.36162612677E+01 0.36259819648E+01 0.36404836866E+01 0.36597202876E+01 0.36818371543E+01
 0.37036216331E+01 0.37218281749E+01 0.37343847311E+01 0.37406260684E+01 0.37406042677E+01
 0.37343309246E+01 0.37217706778E+01 0.37035906993E+01 0.36818479771E+01 0.36597660828E+01
 0.37610572745E+01 0.38597224061E+01 0.39471671101E+01 0.40154930152E+01 0.40587885419E+01
 0.40736082434E+01 0.40588426650E+01 0.40155777331E+01 0.39472469786E+01 0.38597667127E+01
 0.37610550210E+01 0.36597202876E+01 0.35634499849E+01 0.34780044678E+01 0.34073000480E+01
 0.33541922177E+01 0.33210809426E+01 0.33098034562E+01 0.33210777758E+01 0.33541946654E+01
 0.34073196508E+01 0.34780446313E+01 0.35635004545E+01 0.36597586112E+01 0.41184951599E+01
 0.43185479719E+01 0.44844138178E+01 0.46026840911E+01 0.46641338973E+01 0.46641505781E+01
 0.46027323838E+01 0.44844859956E+01 0.43186279792E+01 0.41185600127E+01 0.39005881193E+01
 0.36818371543E+01 0.34780044678E+01 0.33017976691E+01 0.31624961821E+01 0.30663822588E+01
 0.30173761490E+01 0.30173955822E+01 0.30664344388E+01 0.31625656648E+01 0.33018649618E+01
 0.34780516383E+01 0.36818490216E+01 0.39005579615E+01 0.46942665087E+01 0.49741741852E+01
 0.51900364499E+01 0.53258881713E+01 0.53722099945E+01 0.53258762656E+01 0.51900292280E+01
 0.49741905078E+01 0.46943118643E+01 0.43721008545E+01 0.40331017493E+01 0.37036216331E+01
 0.34073000480E+01 0.31624961821E+01 0.29813783180E+01 0.28707212286E+01 0.28335793091E+01
 0.28707707632E+01 0.29814539430E+01 0.31625633996E+01 0.34073308604E+01 0.37036055251E+01
 0.40330502397E+01 0.43720397965E+01 0.54405975942E+01 0.57606719193E+01 0.59762631675E+01
 0.60820686931E+01 0.60820425059E+01 0.59761974262E+01 0.57605993923E+01 0.54405549983E+01
 0.50426147025E+01 0.45996354730E+01 0.41473143072E+01 0.37218281749E+01 0.33541922177E+01
 0.30663822588E+01 0.28707212286E+01 0.27722541408E+01 0.27722682194E+01 0.28707537524E+01
 0.30664092017E+01 0.33541904214E+01 0.37217891444E+01 0.41472544228E+01 0.45995863033E+01
 0.50426063035E+01 0.62203509239E+01 0.64602058243E+01 0.65786473205E+01 0.66124084626E+01
 0.65785934934E+01 0.64601174506E+01 0.62202611410E+01 0.58371364403E+01 0.53359104357E+01
 0.47835800474E+01 0.42342194823E+01 0.37343847311E+01 0.33210809426E+01 0.30173761490E+01
 0.28335793091E+01 0.27722682194E+01 0.28335682892E+01 0.30173517811E+01 0.33210414681E+01
 0.37343329885E+01 0.42341689521E+01 0.47835503748E+01 0.53359236723E+01 0.58371968373E+01
 0.66666320607E+01 0.66890318075E+01 0.66639070862E+01 0.66638957554E+01 0.66889991223E+01
 0.66665814184E+01 0.64968783309E+01 0.61180957738E+01 0.55539154411E+01 0.49116689821E+01
 0.42881260702E+01 0.37406260684E+01 0.33098034562E+01 0.30173955822E+01 0.28707707632E+01
 0.28707537524E+01 0.30173517811E+01 0.33097480547E+01 0.37405763090E+01 0.42880952894E+01
 0.49116665970E+01 0.55539442023E+01 0.61181460597E+01 0.64969363911E+01 0.64017371584E+01
 0.61595995386E+01 0.60556597762E+01 0.61596194068E+01 0.64017589887E+01 0.66100213281E+01
 0.66013795971E+01 0.62789498304E+01 0.56842303101E+01 0.49770799020E+01 0.43063214306E+01
 0.37406042677E+01 0.33210777758E+01 0.30664344388E+01 0.29814539430E+01 0.30664092017E+01
 0.33210414681E+01 0.37405763090E+01 0.43063154578E+01 0.49770994388E+01 0.56842678978E+01
 0.62789891362E+01 0.66014034412E+01 0.66100184833E+01 0.52599534184E+01 0.48495532274E+01
 0.48495701180E+01 0.52599924330E+01 0.58830772158E+01 0.64189432364E+01 0.66076682197E+01
 0.63465409078E+01 0.57269317608E+01 0.49770696977E+01 0.42880796582E+01 0.37343309246E+01
 0.33541946654E+01 0.31625656648E+01 0.31625633996E+01 0.33541904214E+01 0.37343329885E+01
 0.42880952894E+01 0.49770994388E+01 0.57269650761E+01 0.63465646187E+01 0.66076725246E+01