       N       E                     dE             d eps       ncg     rms          rms(c)
DAV:   1    -0.297928632207E+01   -0.29793E+01   -0.10958E+03   732   0.274E+02
DAV:   2    -0.535147222903E+01   -0.23722E+01   -0.20887E+01   936   0.278E+01
DAV:   3    -0.537651217503E+01   -0.25040E-01   -0.25039E-01   816   0.324E+00
DAV:   4    -0.537653644907E+01   -0.24274E-04   -0.24274E-04   996   0.101E-01
DAV:   5    -0.537653645867E+01   -0.96057E-08   -0.98624E-08   720   0.159E-03    0.672E-01
DAV:   6    -0.536344387093E+01    0.13093E-01   -0.59804E-03   750   0.419E-01    0.390E-01
DAV:   7    -0.535689613838E+01    0.65477E-02   -0.10917E-02   726   0.563E-01    0.267E-02
DAV:   8    -0.535686512987E+01    0.31009E-04   -0.39312E-05   672   0.564E-02
   1 F= -.53568651E+01 E0= -.53560356E+01  d E =-.165909E-02
